Loading orca/5.0.3
  Loading requirement: gcc-runtime/11.3.1-gcc-11.3.1-jw6fhud
    numactl/2.0.14-gcc-11.3.1-tqvsbcd openssh/8.7p1-gcc-11.3.1-ddo4kmk
    libiconv/1.17-gcc-11.3.1-h3jdn2x xz/5.4.1-gcc-11.3.1-y32p7p3
    zlib/1.2.13-gcc-11.3.1-dwcx77k libxml2/2.10.3-gcc-11.3.1-m4mk5ab
    cuda/11.8.0-gcc-11.3.1-i5witig libpciaccess/0.17-gcc-11.3.1-qksiqer
    ncurses/6.4-gcc-11.3.1-afnu276 hwloc/2.9.1-gcc-11.3.1-qedjm66
    openssl/3.1.2-gcc-11.3.1-mgoa6lt libevent/2.1.12-gcc-11.3.1-bpr3m74
    pmix/4.2.2-gcc-11.3.1-du4y5e7 slurm/22.05.6-gcc-11.3.1-atym2np
    libnl/3.3.0-gcc-11.3.1-gh3muw7 rdma-core/41.0-gcc-11.3.1-isp54jw
    ucx/1.14.1-gcc-11.3.1-o3wj4kz openmpi/4.1.2-gcc-11.3.1-fs7u3kb

                                 *****************
                                 * O   R   C   A *
                                 *****************

                                            #,                                       
                                            ###                                      
                                            ####                                     
                                            #####                                    
                                            ######                                   
                                           ########,                                 
                                     ,,################,,,,,                         
                               ,,#################################,,                 
                          ,,##########################################,,             
                       ,#########################################, ''#####,          
                    ,#############################################,,   '####,        
                  ,##################################################,,,,####,       
                ,###########''''           ''''###############################       
              ,#####''   ,,,,##########,,,,          '''####'''          '####       
            ,##' ,,,,###########################,,,                        '##       
           ' ,,###''''                  '''############,,,                           
         ,,##''                                '''############,,,,        ,,,,,,###''
      ,#''                                            '''#######################'''  
     '                                                          ''''####''''         
             ,#######,   #######,   ,#######,      ##                                
            ,#'     '#,  ##    ##  ,#'     '#,    #''#        ######   ,####,        
            ##       ##  ##   ,#'  ##            #'  '#       #        #'  '#        
            ##       ##  #######   ##           ,######,      #####,   #    #        
            '#,     ,#'  ##    ##  '#,     ,#' ,#      #,         ##   #,  ,#        
             '#######'   ##     ##  '#######'  #'      '#     #####' # '####'        



                  #######################################################
                  #                        -***-                        #
                  #          Department of theory and spectroscopy      #
                  #    Directorship and core code : Frank Neese         #
                  #        Max Planck Institute fuer Kohlenforschung    #
                  #                Kaiser Wilhelm Platz 1               #
                  #                 D-45470 Muelheim/Ruhr               #
                  #                      Germany                        #
                  #                                                     #
                  #                  All rights reserved                #
                  #                        -***-                        #
                  #######################################################


                         Program Version 5.0.3 -  RELEASE  -


 With contributions from (in alphabetic order):
   Daniel Aravena         : Magnetic Suceptibility
   Michael Atanasov       : Ab Initio Ligand Field Theory (pilot matlab implementation)
   Alexander A. Auer      : GIAO ZORA, VPT2 properties, NMR spectrum
   Ute Becker             : Parallelization
   Giovanni Bistoni       : ED, misc. LED, open-shell LED, HFLD
   Martin Brehm           : Molecular dynamics
   Dmytro Bykov           : SCF Hessian
   Vijay G. Chilkuri      : MRCI spin determinant printing, contributions to CSF-ICE
   Dipayan Datta          : RHF DLPNO-CCSD density
   Achintya Kumar Dutta   : EOM-CC, STEOM-CC
   Dmitry Ganyushin       : Spin-Orbit,Spin-Spin,Magnetic field MRCI
   Miquel Garcia          : C-PCM and meta-GGA Hessian, CC/C-PCM, Gaussian charge scheme
   Yang Guo               : DLPNO-NEVPT2, F12-NEVPT2, CIM, IAO-localization
   Andreas Hansen         : Spin unrestricted coupled pair/coupled cluster methods
   Benjamin Helmich-Paris : MC-RPA, TRAH-SCF, COSX integrals
   Lee Huntington         : MR-EOM, pCC
   Robert Izsak           : Overlap fitted RIJCOSX, COSX-SCS-MP3, EOM
   Marcus Kettner         : VPT2
   Christian Kollmar      : KDIIS, OOCD, Brueckner-CCSD(T), CCSD density, CASPT2, CASPT2-K
   Simone Kossmann        : Meta GGA functionals, TD-DFT gradient, OOMP2, MP2 Hessian
   Martin Krupicka        : Initial AUTO-CI
   Lucas Lang             : DCDCAS
   Marvin Lechner         : AUTO-CI (C++ implementation), FIC-MRCC
   Dagmar Lenk            : GEPOL surface, SMD
   Dimitrios Liakos       : Extrapolation schemes; Compound Job, initial MDCI parallelization
   Dimitrios Manganas     : Further ROCIS development; embedding schemes
   Dimitrios Pantazis     : SARC Basis sets
   Anastasios Papadopoulos: AUTO-CI, single reference methods and gradients
   Taras Petrenko         : DFT Hessian,TD-DFT gradient, ASA, ECA, R-Raman, ABS, FL, XAS/XES, NRVS
   Peter Pinski           : DLPNO-MP2, DLPNO-MP2 Gradient
   Christoph Reimann      : Effective Core Potentials
   Marius Retegan         : Local ZFS, SOC
   Christoph Riplinger    : Optimizer, TS searches, QM/MM, DLPNO-CCSD(T), (RO)-DLPNO pert. Triples
   Tobias Risthaus        : Range-separated hybrids, TD-DFT gradient, RPA, STAB
   Michael Roemelt        : Original ROCIS implementation
   Masaaki Saitow         : Open-shell DLPNO-CCSD energy and density
   Barbara Sandhoefer     : DKH picture change effects
   Avijit Sen             : IP-ROCIS
   Kantharuban Sivalingam : CASSCF convergence, NEVPT2, FIC-MRCI
   Bernardo de Souza      : ESD, SOC TD-DFT
   Georgi Stoychev        : AutoAux, RI-MP2 NMR, DLPNO-MP2 response
   Willem Van den Heuvel  : Paramagnetic NMR
   Boris Wezisla          : Elementary symmetry handling
   Frank Wennmohs         : Technical directorship


 We gratefully acknowledge several colleagues who have allowed us to
 interface, adapt or use parts of their codes:
   Stefan Grimme, W. Hujo, H. Kruse, P. Pracht,  : VdW corrections, initial TS optimization,
                  C. Bannwarth, S. Ehlert          DFT functionals, gCP, sTDA/sTD-DF
   Ed Valeev, F. Pavosevic, A. Kumar             : LibInt (2-el integral package), F12 methods
   Garnet Chan, S. Sharma, J. Yang, R. Olivares  : DMRG
   Ulf Ekstrom                                   : XCFun DFT Library
   Mihaly Kallay                                 : mrcc  (arbitrary order and MRCC methods)
   Jiri Pittner, Ondrej Demel                    : Mk-CCSD
   Frank Weinhold                                : gennbo (NPA and NBO analysis)
   Christopher J. Cramer and Donald G. Truhlar   : smd solvation model
   Lars Goerigk                                  : TD-DFT with DH, B97 family of functionals
   V. Asgeirsson, H. Jonsson                     : NEB implementation
   FAccTs GmbH                                   : IRC, NEB, NEB-TS, DLPNO-Multilevel, CI-OPT
                                                   MM, QMMM, 2- and 3-layer-ONIOM, Crystal-QMMM,
                                                   LR-CPCM, SF, NACMEs, symmetry and pop. for TD-DFT,
                                                   nearIR, NL-DFT gradient (VV10), updates on ESD,
                                                   ML-optimized integration grids
   S Lehtola, MJT Oliveira, MAL Marques          : LibXC Library
   Liviu Ungur et al                             : ANISO software


 Your calculation uses the libint2 library for the computation of 2-el integrals
 For citations please refer to: http://libint.valeyev.net

 Your ORCA version has been built with support for libXC version: 5.1.0
 For citations please refer to: https://tddft.org/programs/libxc/

 This ORCA versions uses:
   CBLAS   interface :  Fast vector & matrix operations
   LAPACKE interface :  Fast linear algebra routines
   SCALAPACK package :  Parallel linear algebra routines
   Shared memory     :  Shared parallel matrices
   BLAS/LAPACK       :  OpenBLAS 0.3.15  USE64BITINT DYNAMIC_ARCH NO_AFFINITY SkylakeX SINGLE_THREADED
        Core in use  :  SkylakeX
   Copyright (c) 2011-2014, The OpenBLAS Project


================================================================================

----- Orbital basis set information -----
Your calculation utilizes the basis: cc-pVTZ 
       H, B-Ne : Obtained from the ccRepo (grant-hill.group.shef.ac.uk/ccrepo) Feb. 2017
                 T. H. Dunning, Jr., J. Chem. Phys. 90, 1007 (1989)
            He : Obtained from the ccRepo (grant-hill.group.shef.ac.uk/ccrepo) Feb. 2017
                 D. E. Woon, T. H. Dunning, Jr., J. Chem. Phys. 100, 2975 (1994)
  Li-Be, Na-Mg : Obtained from the ccRepo (grant-hill.group.shef.ac.uk/ccrepo) Feb. 2017
                 B. P. Prascher, D. E. Woon, K. A. Peterson, T. H. Dunning, Jr., A. K. Wilson, Theor. Chem. Acc. 128, 69 (2011)
         Al-Ar : Obtained from the ccRepo (grant-hill.group.shef.ac.uk/ccrepo) Feb. 2017
                 D. E. Woon, T. H. Dunning, Jr., J. Chem. Phys. 98, 1358 (1993)
            Ca : Obtained from the Peterson Research Group Website (tyr0.chem.wsu.edu/~kipeters) Feb. 2017
                 J. Koput, K. A. Peterson, J. Phys. Chem. 106, 9595 (2002)
         Sc-Zn : Obtained from the ccRepo (grant-hill.group.shef.ac.uk/ccrepo) Feb. 2017
                 N. B. Balabanov, K. A. Peterson, J. Chem. Phys. 123, 064107 (2005)
                 N. B. Balabanov, K. A. Peterson, J. Chem. Phys. 125, 074110 (2006)
         Ga-Kr : Obtained from the ccRepo (grant-hill.group.shef.ac.uk/ccrepo) Feb. 2017
                 A. K. Wilson, D. E. Woon, K. A. Peterson, T. H. Dunning, Jr., J. Chem. Phys. 110, 7667 (1999)
             Y : Obtained from the ccRepo (grant-hill.group.shef.ac.uk/ccrepo) Feb. 2017
                 K. A. Peterson, D. Figgen, M. Dolg, H. Stoll, J. Chem. Phys. 126, 124101 (2007)
        Ag, Au : Obtained from the Peterson Research Group Website (tyr0.chem.wsu.edu/~kipeters) Feb. 2017
                 K. A. Peterson, C. Puzzarini, Theor. Chem. Acc. 114, 283 (2005)

----- AuxC basis set information -----
Your calculation utilizes the auxiliary basis: cc-pVTZ/C 
  Obtained from the EMSL Basis Set Exchange (bse.pnl.gov) Feb. 2017
  H-He, B-F, Al-Ar, Ga-Kr : F. Weigend, A. Kohn, C. Hattig, J. Chem. Phys. 116, 3175 (2002)
             Li-Be, Na-Mg : C. Haettig, Phys. Chem. Chem. Phys. 7, 59 (2005)
                       Ne : C. Haettig, Phys. Chem. Chem. Phys. 7, 59 (2005)
                            F. Weigend, A. Kohn, C. Hattig, J. Chem. Phys. 116, 3175 (2002)
                    Sc-Zn : J. G. Hill, J. A. Platts, J. Chem. Phys. 128, 044104 (2008)

================================================================================
                                        WARNINGS
                       Please study these warnings very carefully!
================================================================================


WARNING: Post HF methods need fully converged wavefunctions
  ===> : Setting SCFConvForced true
         You can overwrite this default with %scf ConvForced false 


WARNING: MDCI localization with Augmented Hessian Foster-Boys
  ===> : Switching off randomization!

INFO   : the flag for use of the SHARK integral package has been found!

================================================================================
                                       INPUT FILE
================================================================================
NAME = input
|  1> ! DLPNO-CCSD(T) cc-pVTZ cc-pVTZ/C TIGHTPNO TIGHTSCF
|  2> %maxcore 10000
|  3> %pal
|  4> nprocs 16
|  5> end
|  6> *xyz -1 1
|  7> H 4.850702572198 12.929978235016 7.689207272938
|  8> C 5.346392000000 11.988262000000 7.873225000000
|  9> H 5.818917000000 11.687204000000 6.932850000000
| 10> H 4.604958000000 11.216892000000 8.098963000000
| 11> C 6.387474000000 11.928130000000 8.969919000000
| 12> H 5.903590000000 12.002705000000 9.946992000000
| 13> H 7.075298000000 12.768926000000 8.882044000000
| 14> C 7.142409000000 10.602734000000 8.882643000000
| 15> H 7.892207000000 10.644706000000 8.097099000000
| 16> H 6.447500000000 9.809447000000 8.614142000000
| 17> N 7.759930000000 10.161740000000 10.123856000000
| 18> H 7.531729000000 9.237844000000 10.490097000000
| 19> C 8.665316000000 10.823272000000 10.825154000000
| 20> N 9.186265000000 11.968733000000 10.354159000000
| 21> H 9.469935000000 11.856414000000 9.373770000000
| 22> H 9.971142000000 12.286641000000 10.899727000000
| 23> N 9.004891000000 10.351892000000 12.014456000000
| 24> H 9.687020000000 10.828265000000 12.590405000000
| 25> H 8.669327000000 9.431744000000 12.269270000000
| 26> C 13.493881000000 9.970208000000 8.967430000000
| 27> H 13.996369000000 9.953698000000 9.924883000000
| 28> H 14.096556000000 10.339812000000 8.148559000000
| 29> C 12.133279000000 10.356834000000 9.001967000000
| 30> C 11.425665000000 10.733524000000 7.685994000000
| 31> O 12.058889000000 10.681933000000 6.627220000000
| 32> O 10.210209000000 11.064087000000 7.813054000000
| 33> O 11.463511000000 10.256205000000 10.032459000000
| 34> C 11.182707000000 7.973917000000 10.354046000000
| 35> H 10.773313000000 8.146612000000 11.336218000000
| 36> C 12.499514000000 7.791287000000 10.192241000000
| 37> H 13.197070000000 7.884616000000 11.002894000000
| 38> C 13.077512000000 7.812243000000 8.898545000000
| 39> C 12.159935000000 7.475235000000 7.792702000000
| 40> H 12.606512000000 7.246828000000 6.835511000000
| 41> C 10.844316000000 7.409302000000 7.970150000000
| 42> H 10.193336000000 7.140446000000 7.144846000000
| 43> C 10.182694000000 7.780194000000 9.255209000000
| 44> H 9.662105000000 8.724991000000 9.076430000000
| 45> O 9.232277000000 6.791093000000 9.625134000000
| 46> H 8.709838000000 7.118899000000 10.405409000000
| 47> C 14.531322000000 7.361560000000 8.741091000000
| 48> O 15.192345000000 7.157029000000 9.779774000000
| 49> O 14.949009000000 7.263017000000 7.564344000000
| 50> *
| 51> 
| 52>                          ****END OF INPUT****
================================================================================

                       ****************************
                       * Single Point Calculation *
                       ****************************

---------------------------------
CARTESIAN COORDINATES (ANGSTROEM)
---------------------------------
  H      4.850703   12.929978    7.689207
  C      5.346392   11.988262    7.873225
  H      5.818917   11.687204    6.932850
  H      4.604958   11.216892    8.098963
  C      6.387474   11.928130    8.969919
  H      5.903590   12.002705    9.946992
  H      7.075298   12.768926    8.882044
  C      7.142409   10.602734    8.882643
  H      7.892207   10.644706    8.097099
  H      6.447500    9.809447    8.614142
  N      7.759930   10.161740   10.123856
  H      7.531729    9.237844   10.490097
  C      8.665316   10.823272   10.825154
  N      9.186265   11.968733   10.354159
  H      9.469935   11.856414    9.373770
  H      9.971142   12.286641   10.899727
  N      9.004891   10.351892   12.014456
  H      9.687020   10.828265   12.590405
  H      8.669327    9.431744   12.269270
  C     13.493881    9.970208    8.967430
  H     13.996369    9.953698    9.924883
  H     14.096556   10.339812    8.148559
  C     12.133279   10.356834    9.001967
  C     11.425665   10.733524    7.685994
  O     12.058889   10.681933    6.627220
  O     10.210209   11.064087    7.813054
  O     11.463511   10.256205   10.032459
  C     11.182707    7.973917   10.354046
  H     10.773313    8.146612   11.336218
  C     12.499514    7.791287   10.192241
  H     13.197070    7.884616   11.002894
  C     13.077512    7.812243    8.898545
  C     12.159935    7.475235    7.792702
  H     12.606512    7.246828    6.835511
  C     10.844316    7.409302    7.970150
  H     10.193336    7.140446    7.144846
  C     10.182694    7.780194    9.255209
  H      9.662105    8.724991    9.076430
  O      9.232277    6.791093    9.625134
  H      8.709838    7.118899   10.405409
  C     14.531322    7.361560    8.741091
  O     15.192345    7.157029    9.779774
  O     14.949009    7.263017    7.564344

----------------------------
CARTESIAN COORDINATES (A.U.)
----------------------------
  NO LB      ZA    FRAG     MASS         X           Y           Z
   0 H     1.0000    0     1.008    9.166499   24.434118   14.530496
   1 C     6.0000    0    12.011   10.103217   22.654532   14.878239
   2 H     1.0000    0     1.008   10.996160   22.085615   13.101188
   3 H     1.0000    0     1.008    8.702109   21.196854   15.304822
   4 C     6.0000    0    12.011   12.070577   22.540899   16.950690
   5 H     1.0000    0     1.008   11.156168   22.681825   18.797091
   6 H     1.0000    0     1.008   13.370376   24.129773   16.784631
   7 C     6.0000    0    12.011   13.497197   20.036264   16.785763
   8 H     1.0000    0     1.008   14.914110   20.115579   15.301300
   9 H     1.0000    0     1.008   12.184009   18.537168   16.278369
  10 N     7.0000    0    14.007   14.664143   19.202906   19.131315
  11 H     1.0000    0     1.008   14.232905   17.456995   19.823410
  12 C     6.0000    0    12.011   16.375074   20.453020   20.456576
  13 N     7.0000    0    14.007   17.359525   22.617628   19.566525
  14 H     1.0000    0     1.008   17.895584   22.405375   17.713858
  15 H     1.0000    0     1.008   18.842728   23.218387   20.597499
  16 N     7.0000    0    14.007   17.016778   19.562241   22.704031
  17 H     1.0000    0     1.008   18.305815   20.462455   23.792417
  18 H     1.0000    0     1.008   16.382654   17.823413   23.185560
  19 C     6.0000    0    12.011   25.499740   18.840963   16.945987
  20 H     1.0000    0     1.008   26.449304   18.809763   18.755311
  21 H     1.0000    0     1.008   26.638630   19.539413   15.398545
  22 C     6.0000    0    12.011   22.928574   19.571580   17.011252
  23 C     6.0000    0    12.011   21.591378   20.283421   14.524424
  24 O     8.0000    0    15.999   22.787998   20.185928   12.523631
  25 O     8.0000    0    15.999   19.294499   20.908094   14.764532
  26 O     8.0000    0    15.999   21.662896   19.381419   18.958600
  27 C     6.0000    0    12.011   21.132254   15.068519   19.566311
  28 H     1.0000    0     1.008   20.358611   15.394866   21.422347
  29 C     6.0000    0    12.011   23.620658   14.723399   19.260544
  30 H     1.0000    0     1.008   24.938848   14.899765   20.792456
  31 C     6.0000    0    12.011   24.712916   14.763000   16.815813
  32 C     6.0000    0    12.011   22.978947   14.126147   14.726073
  33 H     1.0000    0     1.008   23.822855   13.694520   12.917244
  34 C     6.0000    0    12.011   20.492787   14.001552   15.061401
  35 H     1.0000    0     1.008   19.262613   13.493487   13.501802
  36 C     6.0000    0    12.011   19.242503   14.702436   17.489810
  37 H     1.0000    0     1.008   18.258732   16.487844   17.151967
  38 O     8.0000    0    15.999   17.446475   12.833306   18.188867
  39 H     1.0000    0     1.008   16.459208   13.452769   19.663373
  40 C     6.0000    0    12.011   27.460219   13.911332   16.518268
  41 O     8.0000    0    15.999   28.709371   13.524825   18.481095
  42 O     8.0000    0    15.999   28.249533   13.725113   14.294539

--------------------------------
INTERNAL COORDINATES (ANGSTROEM)
--------------------------------
 H      0   0   0     0.000000000000     0.00000000     0.00000000
 C      1   0   0     1.080000000000     0.00000000     0.00000000
 H      2   1   0     1.094632785739   106.95177722     0.00000000
 H      2   1   3     1.093477799455   109.82041397   245.37975994
 C      2   1   3     1.513342432427   118.28556142   122.51970770
 H      5   2   1     1.092875474796   109.91292694    70.83707693
 H      5   2   1     1.089844844103   110.18694199   312.68073120
 C      5   2   1     1.527814946653   109.45099613   190.77675006
 H      8   5   2     1.086755752469   110.40819937    79.11763294
 H      8   5   2     1.088253449179   109.32600870   321.80748841
 N      8   5   2     1.454791258169   115.08588645   203.83270650
 H     11   8   5     1.019701910020   119.08412743   124.54544359
 C     11   8   5     1.322560879818   126.25421289   301.04778596
 N     13  11   8     1.343616408484   120.39558339   354.31439144
 H     14  13  11     1.026765220477   110.39983825   312.69963524
 H     14  13  11     1.007343955269   112.41372287   189.90596947
 N     13  11   8     1.323612304351   118.29069871   172.01322882
 H     17  13  11     1.011903383911   121.11151401   180.53708544
 H     17  13  11     1.012030490942   117.70813365     9.61727573
 C     15  14  13     4.462625536716   112.47589730   277.43430340
 H     20  15  14     1.081426380968   110.17046334   347.60436891
 H     20  15  14     1.081838244416   115.26728519   215.99398951
 C     20  15  14     1.414888783845     9.99551252   111.05376308
 C     23  20  21     1.540908130235   119.17986531   165.64230521
 O     24  23  20     1.234761778050   119.11646934     0.45221273
 O     24  23  20     1.265997404620   114.77168688   179.89769566
 O     23  20  21     1.233137920725   121.35918370   337.44220299
 C     27  23  20     2.321875879527   105.16749690   290.23628517
 H     28  27  23     1.078002248534    90.83952144   170.11752896
 C     28  27  23     1.339221882353    89.90815003    49.76146606
 H     30  28  27     1.073523619575   122.39921578    86.02085653
 C     30  28  27     1.417099214013   120.61919032   282.72019327
 C     32  30  28     1.475943997461   115.28062269   335.33066608
 H     33  32  30     1.080655072194   117.06454585   194.44943841
 C     33  32  30     1.329168276161   121.77944553    12.22559159
 H     35  33  32     1.084981659546   120.30591798   181.19372048
 C     35  33  32     1.492206815434   122.78621333     5.36957873
 H     37  35  33     1.093442366552   106.56219000   108.23849179
 O     37  35  33     1.420724381333   110.35285599   226.44604455
 H     39  37  35     0.994599596814   109.03860841   188.31302210
 C     32  30  28     1.530186408483   118.49605923   190.44450872
 O     41  32  30     1.248057174563   117.76436306   351.15148456
 O     41  32  30     1.252560040408   115.89124095   172.67350925

---------------------------
INTERNAL COORDINATES (A.U.)
---------------------------
 H      0   0   0     0.000000000000     0.00000000     0.00000000
 C      1   0   0     2.040904224635     0.00000000     0.00000000
 H      2   1   0     2.068556182257   106.95177722     0.00000000
 H      2   1   3     2.066373574492   109.82041397   245.37975994
 C      2   1   3     2.859802744129   118.28556142   122.51970770
 H      5   2   1     2.065235345843   109.91292694    70.83707693
 H      5   2   1     2.059508283820   110.18694199   312.68073120
 C      5   2   1     2.887151832486   109.45099613   190.77675006
 H      8   5   2     2.053670746630   110.40819937    79.11763294
 H      8   5   2     2.056500983244   109.32600870   321.80748841
 N      8   5   2     2.749157059963   115.08588645   203.83270650
 H     11   8   5     1.926957348174   119.08412743   124.54544359
 C     11   8   5     2.499277858293   126.25421289   301.04778596
 N     13  11   8     2.539067041077   120.39558339   354.31439144
 H     14  13  11     1.940305070538   110.39983825   312.69963524
 H     14  13  11     1.903604198119   112.41372287   189.90596947
 N     13  11   8     2.501264762712   118.29069871   172.01322882
 H     17  13  11     1.912220269580   121.11151401   180.53708544
 H     17  13  11     1.912460467058   117.70813365     9.61727573
 C     15  14  13     8.433140102637   112.47589730   277.43430340
 H     20  15  14     2.043599694027   110.17046334   347.60436891
 H     20  15  14     2.044378003149   115.26728519   215.99398951
 C     20  15  14     2.673752311423     9.99551252   111.05376308
 C     23  20  21     2.911894363677   119.17986531   165.64230521
 O     24  23  20     2.333361601148   119.11646934     0.45221273
 O     24  23  20     2.392388380987   114.77168688   179.89769566
 O     23  20  21     2.330292955523   121.35918370   337.44220299
 C     27  23  20     4.387709529263   105.16749690   290.23628517
 H     28  27  23     2.037129021481    90.83952144   170.11752896
 C     28  27  23     2.530762590202    89.90815003    49.76146606
 H     30  28  27     2.028665639293   122.39921578    86.02085653
 C     30  28  27     2.677929419079   120.61919032   282.72019327
 C     32  30  28     2.789129944207   115.28062269   335.33066608
 H     33  32  30     2.042142131680   117.06454585   194.44943841
 C     33  32  30     2.511764027841   121.77944553    12.22559159
 H     35  33  32     2.050318196870   120.30591798   181.19372048
 C     35  33  32     2.819862216342   122.78621333     5.36957873
 H     37  35  33     2.066306616010   106.56219000   108.23849179
 O     37  35  33     2.684779992505   110.35285599   226.44604455
 H     39  37  35     1.879520850886   109.03860841   188.31302210
 C     32  30  28     2.891633245881   118.49605923   190.44450872
 O     41  32  30     2.358486259400   117.76436306   351.15148456
 O     41  32  30     2.366995442665   115.89124095   172.67350925

---------------------
BASIS SET INFORMATION
---------------------
There are 4 groups of distinct atoms

 Group   1 Type H   : 5s2p1d contracted to 3s2p1d pattern {311/11/1}
 Group   2 Type C   : 18s5p2d1f contracted to 4s3p2d1f pattern {8811/311/11/1}
 Group   3 Type N   : 18s5p2d1f contracted to 4s3p2d1f pattern {8811/311/11/1}
 Group   4 Type O   : 18s5p2d1f contracted to 4s3p2d1f pattern {8811/311/11/1}

Atom   0H    basis set group =>   1
Atom   1C    basis set group =>   2
Atom   2H    basis set group =>   1
Atom   3H    basis set group =>   1
Atom   4C    basis set group =>   2
Atom   5H    basis set group =>   1
Atom   6H    basis set group =>   1
Atom   7C    basis set group =>   2
Atom   8H    basis set group =>   1
Atom   9H    basis set group =>   1
Atom  10N    basis set group =>   3
Atom  11H    basis set group =>   1
Atom  12C    basis set group =>   2
Atom  13N    basis set group =>   3
Atom  14H    basis set group =>   1
Atom  15H    basis set group =>   1
Atom  16N    basis set group =>   3
Atom  17H    basis set group =>   1
Atom  18H    basis set group =>   1
Atom  19C    basis set group =>   2
Atom  20H    basis set group =>   1
Atom  21H    basis set group =>   1
Atom  22C    basis set group =>   2
Atom  23C    basis set group =>   2
Atom  24O    basis set group =>   4
Atom  25O    basis set group =>   4
Atom  26O    basis set group =>   4
Atom  27C    basis set group =>   2
Atom  28H    basis set group =>   1
Atom  29C    basis set group =>   2
Atom  30H    basis set group =>   1
Atom  31C    basis set group =>   2
Atom  32C    basis set group =>   2
Atom  33H    basis set group =>   1
Atom  34C    basis set group =>   2
Atom  35H    basis set group =>   1
Atom  36C    basis set group =>   2
Atom  37H    basis set group =>   1
Atom  38O    basis set group =>   4
Atom  39H    basis set group =>   1
Atom  40C    basis set group =>   2
Atom  41O    basis set group =>   4
Atom  42O    basis set group =>   4
---------------------------------
AUXILIARY/C BASIS SET INFORMATION
---------------------------------
There are 4 groups of distinct atoms

 Group   1 Type H   : 4s3p2d1f contracted to 4s3p2d1f pattern {1111/111/11/1}
 Group   2 Type C   : 8s6p5d3f1g contracted to 8s6p5d3f1g pattern {11111111/111111/11111/111/1}
 Group   3 Type N   : 8s6p5d3f1g contracted to 8s6p5d3f1g pattern {11111111/111111/11111/111/1}
 Group   4 Type O   : 8s6p5d3f1g contracted to 8s6p5d3f1g pattern {11111111/111111/11111/111/1}

Atom   0H    basis set group =>   1
Atom   1C    basis set group =>   2
Atom   2H    basis set group =>   1
Atom   3H    basis set group =>   1
Atom   4C    basis set group =>   2
Atom   5H    basis set group =>   1
Atom   6H    basis set group =>   1
Atom   7C    basis set group =>   2
Atom   8H    basis set group =>   1
Atom   9H    basis set group =>   1
Atom  10N    basis set group =>   3
Atom  11H    basis set group =>   1
Atom  12C    basis set group =>   2
Atom  13N    basis set group =>   3
Atom  14H    basis set group =>   1
Atom  15H    basis set group =>   1
Atom  16N    basis set group =>   3
Atom  17H    basis set group =>   1
Atom  18H    basis set group =>   1
Atom  19C    basis set group =>   2
Atom  20H    basis set group =>   1
Atom  21H    basis set group =>   1
Atom  22C    basis set group =>   2
Atom  23C    basis set group =>   2
Atom  24O    basis set group =>   4
Atom  25O    basis set group =>   4
Atom  26O    basis set group =>   4
Atom  27C    basis set group =>   2
Atom  28H    basis set group =>   1
Atom  29C    basis set group =>   2
Atom  30H    basis set group =>   1
Atom  31C    basis set group =>   2
Atom  32C    basis set group =>   2
Atom  33H    basis set group =>   1
Atom  34C    basis set group =>   2
Atom  35H    basis set group =>   1
Atom  36C    basis set group =>   2
Atom  37H    basis set group =>   1
Atom  38O    basis set group =>   4
Atom  39H    basis set group =>   1
Atom  40C    basis set group =>   2
Atom  41O    basis set group =>   4
Atom  42O    basis set group =>   4


           ************************************************************
           *        Program running with 16 parallel MPI-processes    *
           *              working on a common directory               *
           ************************************************************
------------------------------------------------------------------------------
                           ORCA GTO INTEGRAL CALCULATION
------------------------------------------------------------------------------
------------------------------------------------------------------------------
                   ___                                                        
                  /   \      - P O W E R E D   B Y -                         
                 /     \                                                     
                 |  |  |   _    _      __       _____    __    __             
                 |  |  |  | |  | |    /  \     |  _  \  |  |  /  |          
                  \  \/   | |  | |   /    \    | | | |  |  | /  /          
                 / \  \   | |__| |  /  /\  \   | |_| |  |  |/  /          
                |  |  |   |  __  | /  /__\  \  |    /   |      \           
                |  |  |   | |  | | |   __   |  |    \   |  |\   \          
                \     /   | |  | | |  |  |  |  | |\  \  |  | \   \       
                 \___/    |_|  |_| |__|  |__|  |_| \__\ |__|  \__/        
                                                                              
                      - O R C A' S   B I G   F R I E N D -                    
                                      &                                       
                       - I N T E G R A L  F E E D E R -                       
                                                                              
 v1 FN, 2020, v2 2021                                                         
------------------------------------------------------------------------------


Reading SHARK input file input.SHARKINP.tmp ... ok
----------------------
SHARK INTEGRAL PACKAGE
----------------------

Number of atoms                             ...     43
Number of basis functions                   ...   1108
Number of shells                            ...    488
Maximum angular momentum                    ...      3
Integral batch strategy                     ... SHARK/LIBINT Hybrid
RI-J (if used) integral strategy            ... SPLIT-RIJ (Revised 2003 algorithm where possible)
Printlevel                                  ...      1
Contraction scheme used                     ... PARTIAL GENERAL contraction
Coulomb Range Separation                    ... NOT USED
Exchange Range Separation                   ... NOT USED
Finite Nucleus Model                        ... NOT USED
Auxiliary Coulomb fitting basis             ... NOT available
Auxiliary J/K fitting basis                 ... NOT available
Auxiliary Correlation fitting basis         ... AVAILABLE
   # of basis functions in Aux-C            ...   2463
   # of shells in Aux-C                     ...    729
   Maximum angular momentum in Aux-C        ...      4
Auxiliary 'external' fitting basis          ... NOT available
Integral threshold                          ...     2.500000e-11
Primitive cut-off                           ...     2.500000e-12
Primitive pair pre-selection threshold      ...     2.500000e-12

Calculating pre-screening integrals         ... done (  0.1 sec) Dimension = 488
Calculating pre-screening integrals (ORCA)  ... done (  0.2 sec) Dimension = 350
Organizing shell pair data                  ... done (  0.6 sec)
Shell pair information
Total number of shell pairs                 ...    119316
Shell pairs after pre-screening             ...     61643
Total number of primitive shell pairs       ...    165154
Primitive shell pairs kept                  ...     74832
          la=0 lb=0:  17979 shell pairs
          la=1 lb=0:  18115 shell pairs
          la=1 lb=1:   4254 shell pairs
          la=2 lb=0:   9438 shell pairs
          la=2 lb=1:   4680 shell pairs
          la=2 lb=2:   1304 shell pairs
          la=3 lb=0:   3195 shell pairs
          la=3 lb=1:   1617 shell pairs
          la=3 lb=2:    888 shell pairs
          la=3 lb=3:    173 shell pairs

Calculating one electron integrals          ... done (  0.1 sec)
Calculating RI/C V-Matrix + Cholesky decomp.... done (  0.4 sec)
Calculating Nuclear repulsion               ... done (  0.0 sec) ENN=   2106.010507424692 Eh

SHARK setup successfully completed in   2.0 seconds

Maximum memory used throughout the entire GTOINT-calculation: 85.2 MB


           ************************************************************
           *        Program running with 16 parallel MPI-processes    *
           *              working on a common directory               *
           ************************************************************
-------------------------------------------------------------------------------
                                 ORCA SCF
-------------------------------------------------------------------------------

------------
SCF SETTINGS
------------
Hamiltonian:
 Ab initio Hamiltonian  Method          .... Hartree-Fock(GTOs)


General Settings:
 Integral files         IntName         .... input
 Hartree-Fock type      HFTyp           .... RHF
 Total Charge           Charge          ....   -1
 Multiplicity           Mult            ....    1
 Number of Electrons    NEL             ....  174
 Basis Dimension        Dim             ....  970
 Nuclear Repulsion      ENuc            ....   2106.0105074247 Eh

Convergence Acceleration:
 DIIS                   CNVDIIS         .... on
   Start iteration      DIISMaxIt       ....    12
   Startup error        DIISStart       ....  0.200000
   # of expansion vecs  DIISMaxEq       ....     5
   Bias factor          DIISBfac        ....   1.050
   Max. coefficient     DIISMaxC        ....  10.000
 Trust-Rad. Augm. Hess. CNVTRAH         .... auto
   Auto Start mean grad. ratio tolernc. ....  1.125000
   Auto Start start iteration           ....    20
   Auto Start num. interpolation iter.  ....    10
   Max. Number of Micro iterations      ....    16
   Max. Number of Macro iterations      .... Maxiter - #DIIS iter
   Number of Davidson start vectors     ....     2
   Converg. threshold I  (grad. norm)   ....   1.000e-05
   Converg. threshold II (energy diff.) ....   1.000e-08
   Grad. Scal. Fac. for Micro threshold ....   0.100
   Minimum threshold for Micro iter.    ....   0.010
   NR start threshold (gradient norm)   ....   0.001
   Initial trust radius                 ....   0.400
   Minimum AH scaling param. (alpha)    ....   1.000
   Maximum AH scaling param. (alpha)    .... 1000.000
   Orbital update algorithm             .... Taylor
   White noise on init. David. guess    .... on
   Maximum white noise                  ....   0.010
   Quad. conv. algorithm                .... NR
 SOSCF                  CNVSOSCF        .... on
   Start iteration      SOSCFMaxIt      ....   150
   Startup grad/error   SOSCFStart      ....  0.003300
 Level Shifting         CNVShift        .... on
   Level shift para.    LevelShift      ....    0.2500
   Turn off err/grad.   ShiftErr        ....    0.0010
 Zerner damping         CNVZerner       .... off
 Static damping         CNVDamp         .... on
   Fraction old density DampFac         ....    0.7000
   Max. Damping (<1)    DampMax         ....    0.9800
   Min. Damping (>=0)   DampMin         ....    0.0000
   Turn off err/grad.   DampErr         ....    0.1000
 Fernandez-Rico         CNVRico         .... off

SCF Procedure:
 Maximum # iterations   MaxIter         ....   125
 SCF integral mode      SCFMode         .... Direct
   Integral package                     .... SHARK and LIBINT hybrid scheme
 Reset frequency        DirectResetFreq ....    20
 Integral Threshold     Thresh          ....  2.500e-11 Eh
 Primitive CutOff       TCut            ....  2.500e-12 Eh

Convergence Tolerance:
 Convergence Check Mode ConvCheckMode   .... Total+1el-Energy
 Convergence forced     ConvForced      .... 1
 Energy Change          TolE            ....  1.000e-08 Eh
 1-El. energy change                    ....  1.000e-05 Eh
 Orbital Gradient       TolG            ....  1.000e-05
 Orbital Rotation angle TolX            ....  1.000e-05
 DIIS Error             TolErr          ....  5.000e-07


Diagonalization of the overlap matrix:
Smallest eigenvalue                        ... 4.612e-05
Time for diagonalization                   ...    0.232 sec
Threshold for overlap eigenvalues          ... 1.000e-08
Number of eigenvalues below threshold      ... 0
Time for construction of square roots      ...    0.106 sec
Total time needed                          ...    0.347 sec

Time for model grid setup =    0.330 sec

------------------------------
INITIAL GUESS: MODEL POTENTIAL
------------------------------
Loading Hartree-Fock densities                     ... done
Calculating cut-offs                               ... done
Initializing the effective Hamiltonian             ... done
Setting up the integral package (SHARK)            ... done
Starting the Coulomb interaction                   ... done (   0.6 sec)
Reading the grid                                   ... done
Mapping shells                                     ... done
Starting the XC term evaluation                    ... done (   0.2 sec)
Transforming the Hamiltonian                       ... done (   0.1 sec)
Diagonalizing the Hamiltonian                      ... done (   0.3 sec)
Back transforming the eigenvectors                 ... done (   0.0 sec)
Now organizing SCF variables                       ... done
                      ------------------
                      INITIAL GUESS DONE (   1.7 sec)
                      ------------------
--------------
SCF ITERATIONS
--------------
ITER       Energy         Delta-E        Max-DP      RMS-DP      [F,P]     Damp
               ***  Starting incremental Fock matrix formation  ***
  0  -1153.4477151707   0.000000000000 0.13885513  0.00061595  0.3581687 0.7000
  1  -1153.8629385833  -0.415223412580 0.14112285  0.00054406  0.2163717 0.7000
                               ***Turning on DIIS***
  2  -1154.1096617488  -0.246723165570 0.08369713  0.00034145  0.1211257 0.7000
  3  -1156.7872052587  -2.677543509921 0.08607748  0.00057205  0.0830874 0.0000
  4  -1154.5220547645   2.265150494254 0.04322693  0.00015723  0.0079530 0.0000
  5  -1154.6558470776  -0.133792313076 0.01412761  0.00006450  0.0039554 0.0000
                      *** Initiating the SOSCF procedure ***
                           *** Shutting down DIIS ***
                      *** Re-Reading the Fockian *** 
                      *** Removing any level shift *** 
ITER      Energy       Delta-E        Grad      Rot      Max-DP    RMS-DP
  6  -1154.61691838   0.0389286950  0.002018  0.002018  0.006906  0.000035
               *** Restarting incremental Fock matrix formation ***
  7  -1154.62737273  -0.0104543502  0.001262  0.002868  0.003100  0.000019
  8  -1154.62744346  -0.0000707245  0.000601  0.003815  0.003530  0.000025
  9  -1154.62747508  -0.0000316184  0.000170  0.000414  0.000905  0.000007
 10  -1154.62747865  -0.0000035730  0.000089  0.000203  0.000241  0.000002
 11  -1154.62747909  -0.0000004445  0.000031  0.000193  0.000177  0.000001
 12  -1154.62747925  -0.0000001575  0.000014  0.000084  0.000096  0.000001
 13  -1154.62747928  -0.0000000287  0.000004  0.000032  0.000030  0.000000
 14  -1154.62747929  -0.0000000060  0.000003  0.000009  0.000007  0.000000
                  ***Gradient check signals convergence***
              ***Rediagonalizing the Fockian in SOSCF/NRSCF***

               *****************************************************
               *                     SUCCESS                       *
               *           SCF CONVERGED AFTER  15 CYCLES          *
               *****************************************************


----------------
TOTAL SCF ENERGY
----------------

Total Energy       :        -1154.62747929 Eh          -31419.01102 eV

Components:
Nuclear Repulsion  :         2106.01050742 Eh           57307.45936 eV
Electronic Energy  :        -3260.63798671 Eh          -88726.47039 eV
One Electron Energy:        -5792.62830940 Eh         -157625.42982 eV
Two Electron Energy:         2531.99032268 Eh           68898.95944 eV

Virial components:
Potential Energy   :        -2308.19025630 Eh          -62809.05002 eV
Kinetic Energy     :         1153.56277702 Eh           31390.03900 eV
Virial Ratio       :            2.00092297


---------------
SCF CONVERGENCE
---------------

  Last Energy change         ...   -1.3574e-09  Tolerance :   1.0000e-08
  Last MAX-Density change    ...    8.0569e-06  Tolerance :   1.0000e-07
  Last RMS-Density change    ...    4.7890e-08  Tolerance :   5.0000e-09
  Last Orbital Gradient      ...    8.1769e-07  Tolerance :   1.0000e-05
  Last Orbital Rotation      ...    3.0112e-06  Tolerance :   1.0000e-05

             **** THE GBW FILE WAS UPDATED (input.gbw) ****
             **** DENSITY input.scfp WAS UPDATED ****
             **** ENERGY FILE WAS UPDATED (input.en.tmp) ****
             **** THE GBW FILE WAS UPDATED (input.gbw) ****
             **** DENSITY input.scfp WAS UPDATED ****
----------------
ORBITAL ENERGIES
----------------

  NO   OCC          E(Eh)            E(eV) 
   0   2.0000     -20.470955      -557.0430 
   1   2.0000     -20.400885      -555.1363 
   2   2.0000     -20.344721      -553.6080 
   3   2.0000     -20.335508      -553.3573 
   4   2.0000     -20.296271      -552.2896 
   5   2.0000     -20.291467      -552.1589 
   6   2.0000     -15.577694      -423.8906 
   7   2.0000     -15.570490      -423.6946 
   8   2.0000     -15.526802      -422.5058 
   9   2.0000     -11.361625      -309.1655 
  10   2.0000     -11.217265      -305.2373 
  11   2.0000     -11.177924      -304.1668 
  12   2.0000     -11.176445      -304.1265 
  13   2.0000     -11.172382      -304.0160 
  14   2.0000     -11.168337      -303.9059 
  15   2.0000     -11.164230      -303.7941 
  16   2.0000     -11.146690      -303.3169 
  17   2.0000     -11.134772      -302.9926 
  18   2.0000     -11.114844      -302.4503 
  19   2.0000     -11.099671      -302.0374 
  20   2.0000     -11.096042      -301.9387 
  21   2.0000     -11.092013      -301.8290 
  22   2.0000     -11.082725      -301.5763 
  23   2.0000      -1.323061       -36.0023 
  24   2.0000      -1.267684       -34.4954 
  25   2.0000      -1.250792       -34.0358 
  26   2.0000      -1.213872       -33.0311 
  27   2.0000      -1.190677       -32.4000 
  28   2.0000      -1.182456       -32.1763 
  29   2.0000      -1.159036       -31.5390 
  30   2.0000      -1.118803       -30.4442 
  31   2.0000      -1.074968       -29.2514 
  32   2.0000      -1.019202       -27.7339 
  33   2.0000      -1.010165       -27.4880 
  34   2.0000      -0.906052       -24.6549 
  35   2.0000      -0.896671       -24.3997 
  36   2.0000      -0.885130       -24.0856 
  37   2.0000      -0.845097       -22.9963 
  38   2.0000      -0.818892       -22.2832 
  39   2.0000      -0.772026       -21.0079 
  40   2.0000      -0.746583       -20.3156 
  41   2.0000      -0.734251       -19.9800 
  42   2.0000      -0.719946       -19.5907 
  43   2.0000      -0.691560       -18.8183 
  44   2.0000      -0.688126       -18.7249 
  45   2.0000      -0.635910       -17.3040 
  46   2.0000      -0.622553       -16.9405 
  47   2.0000      -0.601537       -16.3687 
  48   2.0000      -0.598434       -16.2842 
  49   2.0000      -0.595006       -16.1909 
  50   2.0000      -0.589945       -16.0532 
  51   2.0000      -0.574811       -15.6414 
  52   2.0000      -0.560943       -15.2640 
  53   2.0000      -0.549099       -14.9417 
  54   2.0000      -0.522814       -14.2265 
  55   2.0000      -0.520079       -14.1521 
  56   2.0000      -0.510901       -13.9023 
  57   2.0000      -0.496850       -13.5200 
  58   2.0000      -0.494842       -13.4653 
  59   2.0000      -0.480055       -13.0630 
  60   2.0000      -0.477986       -13.0066 
  61   2.0000      -0.464464       -12.6387 
  62   2.0000      -0.462150       -12.5757 
  63   2.0000      -0.457001       -12.4356 
  64   2.0000      -0.446035       -12.1372 
  65   2.0000      -0.438780       -11.9398 
  66   2.0000      -0.429624       -11.6907 
  67   2.0000      -0.429259       -11.6807 
  68   2.0000      -0.414691       -11.2843 
  69   2.0000      -0.412168       -11.2157 
  70   2.0000      -0.399142       -10.8612 
  71   2.0000      -0.398474       -10.8430 
  72   2.0000      -0.388062       -10.5597 
  73   2.0000      -0.371345       -10.1048 
  74   2.0000      -0.367649       -10.0042 
  75   2.0000      -0.355457        -9.6725 
  76   2.0000      -0.335855        -9.1391 
  77   2.0000      -0.327893        -8.9224 
  78   2.0000      -0.288133        -7.8405 
  79   2.0000      -0.265889        -7.2352 
  80   2.0000      -0.244162        -6.6440 
  81   2.0000      -0.240950        -6.5566 
  82   2.0000      -0.228951        -6.2301 
  83   2.0000      -0.218164        -5.9365 
  84   2.0000      -0.210123        -5.7178 
  85   2.0000      -0.197161        -5.3650 
  86   2.0000      -0.165639        -4.5073 
  87   0.0000       0.139885         3.8065 
  88   0.0000       0.180070         4.9000 
  89   0.0000       0.189585         5.1589 
  90   0.0000       0.199129         5.4186 
  91   0.0000       0.212084         5.7711 
  92   0.0000       0.214904         5.8478 
  93   0.0000       0.229489         6.2447 
  94   0.0000       0.240197         6.5361 
  95   0.0000       0.262308         7.1378 
  96   0.0000       0.268510         7.3065 
  97   0.0000       0.273893         7.4530 
  98   0.0000       0.282444         7.6857 
  99   0.0000       0.285820         7.7776 
 100   0.0000       0.289551         7.8791 
 101   0.0000       0.296280         8.0622 
 102   0.0000       0.300763         8.1842 
 103   0.0000       0.306218         8.3326 
 104   0.0000       0.325731         8.8636 
 105   0.0000       0.335678         9.1343 
 106   0.0000       0.354386         9.6433 
 107   0.0000       0.364382         9.9153 
 108   0.0000       0.369994        10.0681 
 109   0.0000       0.372464        10.1353 
 110   0.0000       0.379635        10.3304 
 111   0.0000       0.385810        10.4984 
 112   0.0000       0.395907        10.7732 
 113   0.0000       0.398763        10.8509 
 114   0.0000       0.403552        10.9812 
 115   0.0000       0.420288        11.4366 
 116   0.0000       0.427178        11.6241 
 117   0.0000       0.437956        11.9174 
 118   0.0000       0.443271        12.0620 
 119   0.0000       0.458518        12.4769 
 120   0.0000       0.461164        12.5489 
 121   0.0000       0.469914        12.7870 
 122   0.0000       0.472874        12.8676 
 123   0.0000       0.478462        13.0196 
 124   0.0000       0.481414        13.0999 
 125   0.0000       0.491110        13.3638 
 126   0.0000       0.493781        13.4365 
 127   0.0000       0.503191        13.6925 
 128   0.0000       0.505834        13.7644 
 129   0.0000       0.518347        14.1049 
 130   0.0000       0.531029        14.4500 
 131   0.0000       0.537420        14.6240 
 132   0.0000       0.541859        14.7447 
 133   0.0000       0.552352        15.0303 
 134   0.0000       0.559883        15.2352 
 135   0.0000       0.566364        15.4116 
 136   0.0000       0.573324        15.6010 
 137   0.0000       0.575856        15.6698 
 138   0.0000       0.582929        15.8623 
 139   0.0000       0.592093        16.1117 
 140   0.0000       0.594086        16.1659 
 141   0.0000       0.600918        16.3518 
 142   0.0000       0.601544        16.3689 
 143   0.0000       0.608296        16.5526 
 144   0.0000       0.610860        16.6224 
 145   0.0000       0.619656        16.8617 
 146   0.0000       0.624456        16.9923 
 147   0.0000       0.628952        17.1146 
 148   0.0000       0.638618        17.3777 
 149   0.0000       0.642893        17.4940 
 150   0.0000       0.643667        17.5151 
 151   0.0000       0.651647        17.7322 
 152   0.0000       0.654763        17.8170 
 153   0.0000       0.656832        17.8733 
 154   0.0000       0.666974        18.1493 
 155   0.0000       0.677997        18.4492 
 156   0.0000       0.678644        18.4668 
 157   0.0000       0.680713        18.5231 
 158   0.0000       0.692721        18.8499 
 159   0.0000       0.696111        18.9421 
 160   0.0000       0.697202        18.9718 
 161   0.0000       0.705595        19.2002 
 162   0.0000       0.709380        19.3032 
 163   0.0000       0.714130        19.4325 
 164   0.0000       0.719484        19.5782 
 165   0.0000       0.720481        19.6053 
 166   0.0000       0.724417        19.7124 
 167   0.0000       0.727088        19.7851 
 168   0.0000       0.730309        19.8727 
 169   0.0000       0.734073        19.9751 
 170   0.0000       0.739222        20.1153 
 171   0.0000       0.741360        20.1734 
 172   0.0000       0.744694        20.2642 
 173   0.0000       0.754286        20.5252 
 174   0.0000       0.755381        20.5550 
 175   0.0000       0.759463        20.6660 
 176   0.0000       0.761331        20.7169 
 177   0.0000       0.763686        20.7810 
 178   0.0000       0.767980        20.8978 
 179   0.0000       0.779669        21.2159 
 180   0.0000       0.786479        21.4012 
 181   0.0000       0.791816        21.5464 
 182   0.0000       0.796962        21.6864 
 183   0.0000       0.802340        21.8328 
 184   0.0000       0.811188        22.0736 
 185   0.0000       0.817324        22.2405 
 186   0.0000       0.822504        22.3815 
 187   0.0000       0.829527        22.5726 
 188   0.0000       0.831424        22.6242 
 189   0.0000       0.837234        22.7823 
 190   0.0000       0.841186        22.8898 
 191   0.0000       0.845738        23.0137 
 192   0.0000       0.854110        23.2415 
 193   0.0000       0.862557        23.4714 
 194   0.0000       0.875440        23.8219 
 195   0.0000       0.877721        23.8840 
 196   0.0000       0.883215        24.0335 
 197   0.0000       0.886751        24.1297 
 198   0.0000       0.899207        24.4687 
 199   0.0000       0.913118        24.8472 
 200   0.0000       0.918788        25.0015 
 201   0.0000       0.919639        25.0246 
 202   0.0000       0.922628        25.1060 
 203   0.0000       0.928330        25.2611 
 204   0.0000       0.935691        25.4615 
 205   0.0000       0.952919        25.9302 
 206   0.0000       0.958707        26.0878 
 207   0.0000       0.961036        26.1511 
 208   0.0000       0.970389        26.4056 
 209   0.0000       0.979110        26.6429 
 210   0.0000       0.980997        26.6943 
 211   0.0000       0.991547        26.9814 
 212   0.0000       0.999331        27.1932 
 213   0.0000       1.004284        27.3280 
 214   0.0000       1.007788        27.4233 
 215   0.0000       1.011495        27.5242 
 216   0.0000       1.020153        27.7598 
 217   0.0000       1.022995        27.8371 
 218   0.0000       1.030539        28.0424 
 219   0.0000       1.039578        28.2884 
 220   0.0000       1.040080        28.3020 
 221   0.0000       1.049005        28.5449 
 222   0.0000       1.052866        28.6499 
 223   0.0000       1.059025        28.8175 
 224   0.0000       1.066346        29.0167 
 225   0.0000       1.074993        29.2521 
 226   0.0000       1.079447        29.3733 
 227   0.0000       1.084037        29.4981 
 228   0.0000       1.086926        29.5768 
 229   0.0000       1.091330        29.6966 
 230   0.0000       1.101455        29.9721 
 231   0.0000       1.104219        30.0473 
 232   0.0000       1.112482        30.2722 
 233   0.0000       1.122264        30.5384 
 234   0.0000       1.128157        30.6987 
 235   0.0000       1.135943        30.9106 
 236   0.0000       1.138496        30.9801 
 237   0.0000       1.145013        31.1574 
 238   0.0000       1.153007        31.3749 
 239   0.0000       1.163667        31.6650 
 240   0.0000       1.170606        31.8538 
 241   0.0000       1.175781        31.9946 
 242   0.0000       1.180512        32.1234 
 243   0.0000       1.188100        32.3298 
 244   0.0000       1.191934        32.4342 
 245   0.0000       1.197801        32.5938 
 246   0.0000       1.206773        32.8380 
 247   0.0000       1.212124        32.9836 
 248   0.0000       1.220102        33.2007 
 249   0.0000       1.227750        33.4088 
 250   0.0000       1.233477        33.5646 
 251   0.0000       1.238854        33.7109 
 252   0.0000       1.245127        33.8816 
 253   0.0000       1.254523        34.1373 
 254   0.0000       1.261008        34.3138 
 255   0.0000       1.265921        34.4475 
 256   0.0000       1.270370        34.5685 
 257   0.0000       1.272598        34.6291 
 258   0.0000       1.279216        34.8092 
 259   0.0000       1.284582        34.9553 
 260   0.0000       1.292715        35.1766 
 261   0.0000       1.294712        35.2309 
 262   0.0000       1.310202        35.6524 
 263   0.0000       1.314290        35.7636 
 264   0.0000       1.317681        35.8559 
 265   0.0000       1.332846        36.2686 
 266   0.0000       1.334071        36.3019 
 267   0.0000       1.336368        36.3644 
 268   0.0000       1.341249        36.4972 
 269   0.0000       1.350026        36.7361 
 270   0.0000       1.359279        36.9879 
 271   0.0000       1.362407        37.0730 
 272   0.0000       1.369178        37.2572 
 273   0.0000       1.374468        37.4012 
 274   0.0000       1.380741        37.5719 
 275   0.0000       1.390151        37.8279 
 276   0.0000       1.392435        37.8901 
 277   0.0000       1.402237        38.1568 
 278   0.0000       1.407439        38.2984 
 279   0.0000       1.415542        38.5189 
 280   0.0000       1.420361        38.6500 
 281   0.0000       1.431716        38.9590 
 282   0.0000       1.434576        39.0368 
 283   0.0000       1.439582        39.1730 
 284   0.0000       1.441644        39.2291 
 285   0.0000       1.444770        39.3142 
 286   0.0000       1.462313        39.7916 
 287   0.0000       1.464493        39.8509 
 288   0.0000       1.466878        39.9158 
 289   0.0000       1.475465        40.1494 
 290   0.0000       1.483343        40.3638 
 291   0.0000       1.495569        40.6965 
 292   0.0000       1.497978        40.7621 
 293   0.0000       1.504394        40.9366 
 294   0.0000       1.509374        41.0722 
 295   0.0000       1.515101        41.2280 
 296   0.0000       1.516790        41.2739 
 297   0.0000       1.520667        41.3795 
 298   0.0000       1.526960        41.5507 
 299   0.0000       1.531097        41.6633 
 300   0.0000       1.536614        41.8134 
 301   0.0000       1.539976        41.9049 
 302   0.0000       1.551169        42.2095 
 303   0.0000       1.553386        42.2698 
 304   0.0000       1.565266        42.5930 
 305   0.0000       1.567908        42.6649 
 306   0.0000       1.572677        42.7947 
 307   0.0000       1.581041        43.0223 
 308   0.0000       1.585228        43.1363 
 309   0.0000       1.591475        43.3062 
 310   0.0000       1.596854        43.4526 
 311   0.0000       1.601668        43.5836 
 312   0.0000       1.603774        43.6409 
 313   0.0000       1.607408        43.7398 
 314   0.0000       1.613847        43.9150 
 315   0.0000       1.621955        44.1356 
 316   0.0000       1.629216        44.3332 
 317   0.0000       1.634382        44.4738 
 318   0.0000       1.639675        44.6178 
 319   0.0000       1.647643        44.8346 
 320   0.0000       1.659939        45.1692 
 321   0.0000       1.665050        45.3083 
 322   0.0000       1.669075        45.4178 
 323   0.0000       1.679166        45.6924 
 324   0.0000       1.682183        45.7745 
 325   0.0000       1.688991        45.9598 
 326   0.0000       1.705034        46.3963 
 327   0.0000       1.710084        46.5337 
 328   0.0000       1.711678        46.5771 
 329   0.0000       1.715894        46.6918 
 330   0.0000       1.725441        46.9516 
 331   0.0000       1.735979        47.2384 
 332   0.0000       1.745107        47.4868 
 333   0.0000       1.748745        47.5858 
 334   0.0000       1.753459        47.7141 
 335   0.0000       1.759762        47.8856 
 336   0.0000       1.769148        48.1410 
 337   0.0000       1.772067        48.2204 
 338   0.0000       1.785236        48.5787 
 339   0.0000       1.787739        48.6469 
 340   0.0000       1.795309        48.8528 
 341   0.0000       1.797076        48.9009 
 342   0.0000       1.814625        49.3785 
 343   0.0000       1.827704        49.7344 
 344   0.0000       1.836511        49.9740 
 345   0.0000       1.848446        50.2988 
 346   0.0000       1.852199        50.4009 
 347   0.0000       1.865063        50.7510 
 348   0.0000       1.873971        50.9934 
 349   0.0000       1.884625        51.2833 
 350   0.0000       1.891357        51.4664 
 351   0.0000       1.898566        51.6626 
 352   0.0000       1.906195        51.8702 
 353   0.0000       1.909153        51.9507 
 354   0.0000       1.916539        52.1517 
 355   0.0000       1.924511        52.3686 
 356   0.0000       1.940669        52.8083 
 357   0.0000       1.956481        53.2385 
 358   0.0000       1.960498        53.3479 
 359   0.0000       1.966144        53.5015 
 360   0.0000       1.968472        53.5648 
 361   0.0000       1.976392        53.7804 
 362   0.0000       1.979538        53.8660 
 363   0.0000       1.991606        54.1943 
 364   0.0000       2.004169        54.5362 
 365   0.0000       2.014905        54.8284 
 366   0.0000       2.033834        55.3434 
 367   0.0000       2.042065        55.5674 
 368   0.0000       2.049117        55.7593 
 369   0.0000       2.050278        55.7909 
 370   0.0000       2.056660        55.9646 
 371   0.0000       2.066795        56.2404 
 372   0.0000       2.079118        56.5757 
 373   0.0000       2.087278        56.7977 
 374   0.0000       2.095422        57.0193 
 375   0.0000       2.115500        57.5657 
 376   0.0000       2.122781        57.7638 
 377   0.0000       2.131944        58.0131 
 378   0.0000       2.142065        58.2886 
 379   0.0000       2.152090        58.5613 
 380   0.0000       2.163500        58.8718 
 381   0.0000       2.168590        59.0103 
 382   0.0000       2.185324        59.4657 
 383   0.0000       2.196540        59.7709 
 384   0.0000       2.205897        60.0255 
 385   0.0000       2.211729        60.1842 
 386   0.0000       2.222667        60.4818 
 387   0.0000       2.226122        60.5759 
 388   0.0000       2.240141        60.9573 
 389   0.0000       2.247792        61.1655 
 390   0.0000       2.252025        61.2807 
 391   0.0000       2.266924        61.6861 
 392   0.0000       2.291940        62.3669 
 393   0.0000       2.306375        62.7597 
 394   0.0000       2.308826        62.8264 
 395   0.0000       2.333945        63.5099 
 396   0.0000       2.356364        64.1199 
 397   0.0000       2.366598        64.3984 
 398   0.0000       2.373986        64.5994 
 399   0.0000       2.396292        65.2064 
 400   0.0000       2.428116        66.0724 
 401   0.0000       2.434044        66.2337 
 402   0.0000       2.468389        67.1683 
 403   0.0000       2.482174        67.5434 
 404   0.0000       2.497419        67.9582 
 405   0.0000       2.524518        68.6956 
 406   0.0000       2.544998        69.2529 
 407   0.0000       2.548387        69.3451 
 408   0.0000       2.564449        69.7822 
 409   0.0000       2.569887        69.9302 
 410   0.0000       2.586495        70.3821 
 411   0.0000       2.596720        70.6603 
 412   0.0000       2.605708        70.9049 
 413   0.0000       2.611468        71.0616 
 414   0.0000       2.623758        71.3961 
 415   0.0000       2.634341        71.6841 
 416   0.0000       2.656995        72.3005 
 417   0.0000       2.660997        72.4094 
 418   0.0000       2.669835        72.6499 
 419   0.0000       2.677509        72.8587 
 420   0.0000       2.683126        73.0116 
 421   0.0000       2.695629        73.3518 
 422   0.0000       2.702524        73.5394 
 423   0.0000       2.709861        73.7391 
 424   0.0000       2.717131        73.9369 
 425   0.0000       2.725633        74.1683 
 426   0.0000       2.739712        74.5514 
 427   0.0000       2.744458        74.6805 
 428   0.0000       2.762114        75.1609 
 429   0.0000       2.765095        75.2420 
 430   0.0000       2.785168        75.7883 
 431   0.0000       2.788598        75.8816 
 432   0.0000       2.805940        76.3535 
 433   0.0000       2.819585        76.7248 
 434   0.0000       2.826442        76.9114 
 435   0.0000       2.843850        77.3851 
 436   0.0000       2.860893        77.8489 
 437   0.0000       2.870512        78.1106 
 438   0.0000       2.883794        78.4720 
 439   0.0000       2.890748        78.6613 
 440   0.0000       2.899602        78.9022 
 441   0.0000       2.902980        78.9941 
 442   0.0000       2.911611        79.2290 
 443   0.0000       2.919207        79.4357 
 444   0.0000       2.926019        79.6210 
 445   0.0000       2.942216        80.0618 
 446   0.0000       2.948187        80.2243 
 447   0.0000       2.956375        80.4471 
 448   0.0000       2.966223        80.7150 
 449   0.0000       2.971779        80.8662 
 450   0.0000       2.985053        81.2274 
 451   0.0000       2.992368        81.4265 
 452   0.0000       3.000918        81.6591 
 453   0.0000       3.004005        81.7431 
 454   0.0000       3.014801        82.0369 
 455   0.0000       3.024870        82.3109 
 456   0.0000       3.028280        82.4037 
 457   0.0000       3.033160        82.5365 
 458   0.0000       3.038695        82.6871 
 459   0.0000       3.047021        82.9137 
 460   0.0000       3.055242        83.1374 
 461   0.0000       3.063419        83.3599 
 462   0.0000       3.069446        83.5239 
 463   0.0000       3.076723        83.7219 
 464   0.0000       3.088904        84.0533 
 465   0.0000       3.089524        84.0702 
 466   0.0000       3.093625        84.1818 
 467   0.0000       3.111141        84.6584 
 468   0.0000       3.116168        84.7953 
 469   0.0000       3.120253        84.9064 
 470   0.0000       3.134710        85.2998 
 471   0.0000       3.137748        85.3825 
 472   0.0000       3.142736        85.5182 
 473   0.0000       3.151247        85.7498 
 474   0.0000       3.165252        86.1309 
 475   0.0000       3.169115        86.2360 
 476   0.0000       3.172842        86.3374 
 477   0.0000       3.179670        86.5232 
 478   0.0000       3.186175        86.7002 
 479   0.0000       3.198246        87.0287 
 480   0.0000       3.204150        87.1894 
 481   0.0000       3.211107        87.3787 
 482   0.0000       3.218507        87.5800 
 483   0.0000       3.222440        87.6871 
 484   0.0000       3.228550        87.8533 
 485   0.0000       3.231247        87.9267 
 486   0.0000       3.243168        88.2511 
 487   0.0000       3.253839        88.5415 
 488   0.0000       3.255391        88.5837 
 489   0.0000       3.272739        89.0557 
 490   0.0000       3.277834        89.1944 
 491   0.0000       3.282193        89.3130 
 492   0.0000       3.288784        89.4924 
 493   0.0000       3.299285        89.7781 
 494   0.0000       3.305207        89.9393 
 495   0.0000       3.309007        90.0427 
 496   0.0000       3.315241        90.2123 
 497   0.0000       3.323944        90.4491 
 498   0.0000       3.327717        90.5518 
 499   0.0000       3.335213        90.7558 
 500   0.0000       3.338556        90.8467 
 501   0.0000       3.341917        90.9382 
 502   0.0000       3.350780        91.1794 
 503   0.0000       3.352678        91.2310 
 504   0.0000       3.360024        91.4309 
 505   0.0000       3.365003        91.5664 
 506   0.0000       3.371747        91.7499 
 507   0.0000       3.375786        91.8598 
 508   0.0000       3.385363        92.1204 
 509   0.0000       3.388048        92.1935 
 510   0.0000       3.397251        92.4439 
 511   0.0000       3.405336        92.6639 
 512   0.0000       3.408854        92.7596 
 513   0.0000       3.417352        92.9909 
 514   0.0000       3.419848        93.0588 
 515   0.0000       3.423302        93.1528 
 516   0.0000       3.431746        93.3826 
 517   0.0000       3.436316        93.5069 
 518   0.0000       3.437723        93.5452 
 519   0.0000       3.448632        93.8420 
 520   0.0000       3.456443        94.0546 
 521   0.0000       3.466072        94.3166 
 522   0.0000       3.468580        94.3849 
 523   0.0000       3.473238        94.5116 
 524   0.0000       3.481347        94.7323 
 525   0.0000       3.488068        94.9152 
 526   0.0000       3.491113        94.9980 
 527   0.0000       3.493446        95.0615 
 528   0.0000       3.504959        95.3748 
 529   0.0000       3.509217        95.4906 
 530   0.0000       3.510986        95.5388 
 531   0.0000       3.514774        95.6419 
 532   0.0000       3.521340        95.8205 
 533   0.0000       3.526805        95.9693 
 534   0.0000       3.538684        96.2925 
 535   0.0000       3.543011        96.4102 
 536   0.0000       3.546689        96.5103 
 537   0.0000       3.551371        96.6377 
 538   0.0000       3.560674        96.8909 
 539   0.0000       3.565346        97.0180 
 540   0.0000       3.568212        97.0960 
 541   0.0000       3.572418        97.2104 
 542   0.0000       3.579377        97.3998 
 543   0.0000       3.588934        97.6599 
 544   0.0000       3.595304        97.8332 
 545   0.0000       3.602204        98.0210 
 546   0.0000       3.605000        98.0970 
 547   0.0000       3.613566        98.3301 
 548   0.0000       3.617265        98.4308 
 549   0.0000       3.621451        98.5447 
 550   0.0000       3.626224        98.6746 
 551   0.0000       3.631963        98.8307 
 552   0.0000       3.635894        98.9377 
 553   0.0000       3.642184        99.1089 
 554   0.0000       3.645020        99.1860 
 555   0.0000       3.657695        99.5309 
 556   0.0000       3.663371        99.6854 
 557   0.0000       3.673677        99.9658 
 558   0.0000       3.675330       100.0108 
 559   0.0000       3.680376       100.1481 
 560   0.0000       3.686368       100.3112 
 561   0.0000       3.691151       100.4413 
 562   0.0000       3.694344       100.5282 
 563   0.0000       3.704234       100.7973 
 564   0.0000       3.708834       100.9225 
 565   0.0000       3.712616       101.0254 
 566   0.0000       3.723017       101.3084 
 567   0.0000       3.730700       101.5175 
 568   0.0000       3.739494       101.7568 
 569   0.0000       3.743561       101.8675 
 570   0.0000       3.747648       101.9787 
 571   0.0000       3.761373       102.3522 
 572   0.0000       3.762120       102.3725 
 573   0.0000       3.766715       102.4975 
 574   0.0000       3.775976       102.7495 
 575   0.0000       3.783725       102.9604 
 576   0.0000       3.790416       103.1425 
 577   0.0000       3.797150       103.3257 
 578   0.0000       3.798671       103.3671 
 579   0.0000       3.803018       103.4854 
 580   0.0000       3.812177       103.7346 
 581   0.0000       3.821733       103.9946 
 582   0.0000       3.826220       104.1167 
 583   0.0000       3.830445       104.2317 
 584   0.0000       3.838563       104.4526 
 585   0.0000       3.841310       104.5274 
 586   0.0000       3.852979       104.8449 
 587   0.0000       3.860197       105.0413 
 588   0.0000       3.864684       105.1634 
 589   0.0000       3.870361       105.3179 
 590   0.0000       3.872653       105.3802 
 591   0.0000       3.879174       105.5577 
 592   0.0000       3.882599       105.6509 
 593   0.0000       3.890180       105.8572 
 594   0.0000       3.892312       105.9152 
 595   0.0000       3.898188       106.0751 
 596   0.0000       3.908654       106.3599 
 597   0.0000       3.909982       106.3960 
 598   0.0000       3.919873       106.6652 
 599   0.0000       3.927133       106.8627 
 600   0.0000       3.931690       106.9867 
 601   0.0000       3.938263       107.1656 
 602   0.0000       3.941523       107.2543 
 603   0.0000       3.943628       107.3116 
 604   0.0000       3.945717       107.3684 
 605   0.0000       3.952636       107.5567 
 606   0.0000       3.966764       107.9411 
 607   0.0000       3.979838       108.2969 
 608   0.0000       3.984675       108.4285 
 609   0.0000       3.990593       108.5895 
 610   0.0000       3.999540       108.8330 
 611   0.0000       4.007748       109.0564 
 612   0.0000       4.010045       109.1189 
 613   0.0000       4.014927       109.2517 
 614   0.0000       4.022312       109.4527 
 615   0.0000       4.031691       109.7079 
 616   0.0000       4.038801       109.9014 
 617   0.0000       4.045177       110.0749 
 618   0.0000       4.051228       110.2395 
 619   0.0000       4.052916       110.2854 
 620   0.0000       4.054800       110.3367 
 621   0.0000       4.071866       110.8011 
 622   0.0000       4.083283       111.1118 
 623   0.0000       4.088802       111.2620 
 624   0.0000       4.093643       111.3937 
 625   0.0000       4.103553       111.6634 
 626   0.0000       4.109918       111.8366 
 627   0.0000       4.115501       111.9885 
 628   0.0000       4.127397       112.3122 
 629   0.0000       4.133834       112.4873 
 630   0.0000       4.141049       112.6837 
 631   0.0000       4.151603       112.9709 
 632   0.0000       4.155671       113.0816 
 633   0.0000       4.163471       113.2938 
 634   0.0000       4.165244       113.3420 
 635   0.0000       4.170588       113.4875 
 636   0.0000       4.172525       113.5402 
 637   0.0000       4.179637       113.7337 
 638   0.0000       4.191774       114.0640 
 639   0.0000       4.196718       114.1985 
 640   0.0000       4.199071       114.2625 
 641   0.0000       4.207366       114.4883 
 642   0.0000       4.213493       114.6550 
 643   0.0000       4.215999       114.7232 
 644   0.0000       4.223930       114.9390 
 645   0.0000       4.232364       115.1685 
 646   0.0000       4.237105       115.2975 
 647   0.0000       4.243415       115.4692 
 648   0.0000       4.253128       115.7335 
 649   0.0000       4.265836       116.0793 
 650   0.0000       4.268351       116.1477 
 651   0.0000       4.273090       116.2767 
 652   0.0000       4.281488       116.5052 
 653   0.0000       4.286270       116.6353 
 654   0.0000       4.289096       116.7122 
 655   0.0000       4.301377       117.0464 
 656   0.0000       4.307171       117.2041 
 657   0.0000       4.310659       117.2990 
 658   0.0000       4.319096       117.5286 
 659   0.0000       4.323053       117.6363 
 660   0.0000       4.323603       117.6512 
 661   0.0000       4.340137       118.1011 
 662   0.0000       4.345881       118.2574 
 663   0.0000       4.351764       118.4175 
 664   0.0000       4.359715       118.6339 
 665   0.0000       4.373442       119.0074 
 666   0.0000       4.377414       119.1155 
 667   0.0000       4.379470       119.1714 
 668   0.0000       4.397332       119.6575 
 669   0.0000       4.401823       119.7797 
 670   0.0000       4.403490       119.8250 
 671   0.0000       4.409382       119.9854 
 672   0.0000       4.413010       120.0841 
 673   0.0000       4.414774       120.1321 
 674   0.0000       4.427187       120.4699 
 675   0.0000       4.429701       120.5383 
 676   0.0000       4.439809       120.8133 
 677   0.0000       4.451174       121.1226 
 678   0.0000       4.454276       121.2070 
 679   0.0000       4.459815       121.3577 
 680   0.0000       4.470139       121.6387 
 681   0.0000       4.479086       121.8821 
 682   0.0000       4.485763       122.0638 
 683   0.0000       4.488845       122.1477 
 684   0.0000       4.497041       122.3707 
 685   0.0000       4.506347       122.6239 
 686   0.0000       4.509802       122.7179 
 687   0.0000       4.514308       122.8406 
 688   0.0000       4.521625       123.0397 
 689   0.0000       4.529039       123.2414 
 690   0.0000       4.535246       123.4103 
 691   0.0000       4.536896       123.4552 
 692   0.0000       4.546855       123.7262 
 693   0.0000       4.555410       123.9590 
 694   0.0000       4.559429       124.0684 
 695   0.0000       4.578219       124.5797 
 696   0.0000       4.583448       124.7220 
 697   0.0000       4.589359       124.8828 
 698   0.0000       4.593373       124.9920 
 699   0.0000       4.606548       125.3506 
 700   0.0000       4.608276       125.3976 
 701   0.0000       4.616188       125.6129 
 702   0.0000       4.625702       125.8717 
 703   0.0000       4.630293       125.9967 
 704   0.0000       4.637016       126.1796 
 705   0.0000       4.641523       126.3023 
 706   0.0000       4.653861       126.6380 
 707   0.0000       4.658455       126.7630 
 708   0.0000       4.661863       126.8557 
 709   0.0000       4.672264       127.1388 
 710   0.0000       4.673070       127.1607 
 711   0.0000       4.688456       127.5794 
 712   0.0000       4.695632       127.7746 
 713   0.0000       4.696697       127.8036 
 714   0.0000       4.709471       128.1512 
 715   0.0000       4.717976       128.3827 
 716   0.0000       4.722951       128.5180 
 717   0.0000       4.731127       128.7405 
 718   0.0000       4.738226       128.9337 
 719   0.0000       4.748409       129.2108 
 720   0.0000       4.751194       129.2866 
 721   0.0000       4.757718       129.4641 
 722   0.0000       4.770123       129.8016 
 723   0.0000       4.774215       129.9130 
 724   0.0000       4.784745       130.1995 
 725   0.0000       4.789084       130.3176 
 726   0.0000       4.791617       130.3865 
 727   0.0000       4.802955       130.6951 
 728   0.0000       4.807424       130.8167 
 729   0.0000       4.816253       131.0569 
 730   0.0000       4.819149       131.1357 
 731   0.0000       4.826650       131.3398 
 732   0.0000       4.844576       131.8276 
 733   0.0000       4.854536       132.0986 
 734   0.0000       4.869174       132.4970 
 735   0.0000       4.872336       132.5830 
 736   0.0000       4.889578       133.0522 
 737   0.0000       4.899786       133.3299 
 738   0.0000       4.900311       133.3442 
 739   0.0000       4.909114       133.5838 
 740   0.0000       4.916351       133.7807 
 741   0.0000       4.920087       133.8824 
 742   0.0000       4.922309       133.9428 
 743   0.0000       4.937030       134.3434 
 744   0.0000       4.957530       134.9012 
 745   0.0000       4.959992       134.9682 
 746   0.0000       4.964821       135.0997 
 747   0.0000       4.974284       135.3571 
 748   0.0000       4.983389       135.6049 
 749   0.0000       4.993149       135.8705 
 750   0.0000       5.009928       136.3271 
 751   0.0000       5.026440       136.7764 
 752   0.0000       5.030301       136.8815 
 753   0.0000       5.037741       137.0839 
 754   0.0000       5.046753       137.3291 
 755   0.0000       5.057989       137.6349 
 756   0.0000       5.068551       137.9223 
 757   0.0000       5.082007       138.2884 
 758   0.0000       5.090171       138.5106 
 759   0.0000       5.098054       138.7251 
 760   0.0000       5.109364       139.0329 
 761   0.0000       5.122272       139.3841 
 762   0.0000       5.139756       139.8599 
 763   0.0000       5.143298       139.9562 
 764   0.0000       5.179872       140.9515 
 765   0.0000       5.186967       141.1446 
 766   0.0000       5.192385       141.2920 
 767   0.0000       5.208379       141.7272 
 768   0.0000       5.214219       141.8861 
 769   0.0000       5.220109       142.0464 
 770   0.0000       5.231145       142.3467 
 771   0.0000       5.241310       142.6233 
 772   0.0000       5.246903       142.7755 
 773   0.0000       5.250151       142.8639 
 774   0.0000       5.258267       143.0847 
 775   0.0000       5.273015       143.4860 
 776   0.0000       5.278405       143.6327 
 777   0.0000       5.292684       144.0213 
 778   0.0000       5.299867       144.2167 
 779   0.0000       5.304288       144.3370 
 780   0.0000       5.316871       144.6794 
 781   0.0000       5.329140       145.0133 
 782   0.0000       5.333652       145.1360 
 783   0.0000       5.349358       145.5634 
 784   0.0000       5.368073       146.0727 
 785   0.0000       5.373367       146.2168 
 786   0.0000       5.382738       146.4718 
 787   0.0000       5.387767       146.6086 
 788   0.0000       5.408511       147.1731 
 789   0.0000       5.427833       147.6988 
 790   0.0000       5.443048       148.1129 
 791   0.0000       5.456528       148.4797 
 792   0.0000       5.461238       148.6078 
 793   0.0000       5.474476       148.9681 
 794   0.0000       5.479561       149.1064 
 795   0.0000       5.502663       149.7351 
 796   0.0000       5.506803       149.8477 
 797   0.0000       5.512247       149.9959 
 798   0.0000       5.522550       150.2762 
 799   0.0000       5.554812       151.1541 
 800   0.0000       5.564297       151.4122 
 801   0.0000       5.567770       151.5067 
 802   0.0000       5.580312       151.8480 
 803   0.0000       5.585113       151.9786 
 804   0.0000       5.591156       152.1431 
 805   0.0000       5.605582       152.5356 
 806   0.0000       5.614889       152.7889 
 807   0.0000       5.626526       153.1056 
[...]

    TCutPairs          =        1.000e-05
    TCutPNO            =        1.000e-07
    TCutPNOSingles     =        3.000e-09
    TCutMP2Pairs       =        1.000e-06
    TCutMKN            =        1.000e-03
    TCutDO             =        5.000e-03

Pair selection                          .... not used
Type of local MP2 treatment                 .... full local PMP2
Strategy for PNO selection                  .... occupation number selection
Pair density normalization                  .... MP2 norm
Spin component scaling                      .... not used

PASS-1: Formation of initial guess LMP2 amplitudes
Initial amplitudes guess done. Entering LMP2 iteration loop:
   Max. no of iterations          ...  50
   Energy convergence tolerance   ...    1.0e-07
   Residual convergence tolerance ...    5.0e-07
   Fock matrix cutoff             ...    1.0e-05 Eh
   DIIS convergence acceleration parameters:
        Max # vectors in DIIS     ... 7
        Start iteration of DIIS   ... 0
        Levelshift                ... 2.000e-01
        Damping factor 1          ... 5.000e-01
        Damping factor 2          ... 1.000e+00
   L-MP2 PNO cut-off              ...   1.0e-09
   L-MP2 PNO cut-off (core)       ...   1.0e-11
                           *** Turning on DIIS ***
LMP2-Iter=   0:  ELMP2= -4.284047966285  DE=   1.1e-01 RMAX=   1.3e-02
LMP2-Iter=   1:  ELMP2= -4.339254052369  DE=   5.5e-02 RMAX=   6.9e-03
LMP2-Iter=   2:  ELMP2= -4.350854365873  DE=   1.2e-02 RMAX=   3.0e-03
LMP2-Iter=   3:  ELMP2= -4.352510279562  DE=   1.7e-03 RMAX=   1.2e-03
LMP2-Iter=   4:  ELMP2= -4.352555758094  DE=   4.5e-05 RMAX=   4.1e-04
LMP2-Iter=   5:  ELMP2= -4.352517722394  DE=   3.8e-05 RMAX=   1.1e-04
LMP2-Iter=   6:  ELMP2= -4.352512120419  DE=   5.6e-06 RMAX=   2.4e-05
LMP2-Iter=   7:  ELMP2= -4.352513682015  DE=   1.6e-06 RMAX=   6.8e-06
LMP2-Iter=   8:  ELMP2= -4.352514497407  DE=   8.2e-07 RMAX=   1.8e-06
LMP2-Iter=   9:  ELMP2= -4.352514428263  DE=   6.9e-08 RMAX=   5.8e-07
LMP2-Iter=  10:  ELMP2= -4.352514407790  DE=   2.0e-08 RMAX=   1.4e-07
LMP2-Iter=  11:  ELMP2= -4.352514370179  DE=   3.8e-08 RMAX=   3.9e-08 => CONVERGED
PASS-2: Formation of Pair natural orbitals
   .... Finished loop over pairs

 PNO Occupation Number Statistics: 
  | Av. % of trace(Dij) retained        ...  97.867237066425
  | sigma^2 in % of trace(Dij) retained ...   9.66e+00
  | Av. % of trace(Di) retained         ...  99.999675256742
  | sigma^2 in % of trace(Di) retained  ...   8.39e-09
 Distributions of % trace(Dij) recovered:
  |       >= 99.9  ...   228 ( 12.5 % of all pairs)
  |   [60.0, 70.0) ...     1 (  0.1 % of all pairs)
  |   [70.0, 80.0) ...     7 (  0.4 % of all pairs)
  |   [80.0, 90.0) ...    59 (  3.2 % of all pairs)
  |   [90.0, 99.0) ...   975 ( 53.5 % of all pairs)
  |   [99.0, 99.9) ...   552 ( 30.3 % of all pairs)
 Distributions of % trace(Di) recovered :
  |       >= 99.9  ...    64 (100.0 % of all I-pairs )

Making pair pair interaction lists          ... done

                       ===========================
                       1277 OF 1822 PAIRS ARE KEPT
                       ===========================

Total time spent in the initial guess                 ...   366.925 sec
L-MP2 correlation energy (all non-screened pairs)     ...      -4.352514370179 Eh
L-MP2 PNO error correction                            ...      -0.000188112169 Eh
                                                          --------------------
Initial total L-MP2 energy (non-screened pairs)       ...      -4.352702482348 Eh

Initial PNO correlation energy                        ...      -4.344878529838 Eh
sum of pair energies estimated for screened out pairs ...      -0.000105071494 Eh
sum of MP2 pair energies for pairs that were not kept ...      -0.002787059895 Eh
sum of PNO error estimates for the kept pairs         ...      -0.005650593028 Eh
                                                          --------------------
sum of all corrections                                         -0.008542724416
Initial total correlation energy                               -4.353421254254
Thresholds for map construction and integral transformation for fine MP2 and CCSD(T) calculation:
   TCutMKN   ...     1.0e-03
   TCutDO    ...     5.0e-03
   TCutPairs ...     1.0e-05
   TCutCMO   ...     1.0e-03
   TCutCPAO  ...     1.0e-03

Time for aux screen maps:            0.024
Time for maps after fine MP2:            0.142
-----------------------------
LOCAL RI TRANSFORMATION (IJV)
-----------------------------

Orbital window:      23 to 86
Basis functions:    970 (350 shells)
Aux. functions:    2463 (729 shells)
Use SHARK:           on

Processing maps (0.0 sec)
Average map sizes:
   Aux shells -> MOs(i)           58.6
   Aux shells -> MOs(j)           64.0
   MOs        -> AO shells       295.2

Calculating integrals (4.0 sec, 70.720 MB)
Sorting integrals (0.4 sec, 70.693 MB)
Total time for the integral transformation: 4.4 sec
--------------------------------
LOCAL RI TRANSFORMATION (VABPAO)
--------------------------------

Number of PAOs:     970
Basis functions:    970 (350 shells)
Aux. functions:    2463 (729 shells)
Use SHARK:           on

Processing maps (0.0 sec)
Average map sizes:
   Aux shells -> PAOs            969.8
   PAOs       -> AO shells       335.5

Calculating integrals (18.2 sec, 17674.496 MB)
Finished


-------------------------------------
Pair Pair Term precalculation with     
RI-(ij|mn) and (im|jn) transformation  
ON THE FLY                             
-------------------------------------

   IBatch   1 (of   5)              ... done (  152.931 sec)
   IBatch   2 (of   5)              ... done (  181.944 sec)
   IBatch   3 (of   5)              ... done (  236.098 sec)
   IBatch   4 (of   5)              ... done (  360.838 sec)
   IBatch   5 (of   5)              ... done (   88.767 sec)
Total EXT                           ...        1020.578 sec

---------------------
RI-PNO TRANSFORMATION
---------------------

Total Number of PNOs                   ... 38469
Average number of PNOs per pair        ...    30
Maximal number of PNOs per pair        ...   106
   #pairs with  1 -  5 PNOs   :    0
   #pairs with  6 - 10 PNOs   :  300
   #pairs with 11 - 15 PNOs   :  155
   #pairs with 16 - 20 PNOs   :  104
   #pairs with 21 - 25 PNOs   :   72
   #pairs with 26 - 30 PNOs   :  101
   #pairs with 31 - 35 PNOs   :   86
   #pairs with 36 - 40 PNOs   :   62
   #pairs with 41 - 45 PNOs   :   40
   #pairs with 46 - 50 PNOs   :   81
   #pairs with 51 - 55 PNOs   :   85
   #pairs with 56 - 60 PNOs   :   50
   #pairs with 61 - 65 PNOs   :   70
   #pairs with 66 - 70 PNOs   :   42
   #pairs with 71 - 75 PNOs   :   12
   #pairs with 76 - 80 PNOs   :    5
   #pairs with 81 - 85 PNOs   :    6
   #pairs with 86 - 90 PNOs   :    1
   #pairs with 91 - 95 PNOs   :    2
   #pairs with > 96 PNOs      :    3

Generation of (ij|ab)[P] integrals            ... on
Generation of (ia|bc)[P],(ja|bc)[P] integrals ... on
Storage of 3 and 4 external integrals         ... on
Generation of ALL (ka|bc)[P] integrals        ... on
Keep RI integrals in memory                   ... off

Ibatch:  1 (of  1)
Starting 2-4 index PNO integral generation ... done

Timings:
Total PNO integral transformation time     ...        584.587 sec
Size of the 3-external file                ...       714 MB
Size of the 4-external file                ...      5421 MB
Size of the IKJL file                      ...         1 MB
Size of the all 3-external file            ...     21635 MB
Size of the 1-external file                ...        54 MB

Making pair/pair overlap matrices          ... done (  241.685 sec)
Size of the pair overlap file              ... 7226 MB
Redoing the guess amplitudes               ... done (    0.045 sec)

-------------------------
FINAL STARTUP INFORMATION
-------------------------

E(0)                                       ...  -1154.627479290
E(L-MP2)                                   ...     -4.352702482
E(L-MP2) including corrections             ...     -4.353421254
Initial E(tot)                             ...  -1158.980900545
<T|T>                                      ...      1.116530913
Number of pairs included                   ... 1277
Total number of pairs                      ... 2080

------------------------------------------------
                  RHF COUPLED CLUSTER ITERATIONS
------------------------------------------------

Number of PNO amplitudes to be optimized   ...      1709585
Number of non-PNO amplitudes               ...    995662853
Untruncated number of regular amplitudes   ...   1621753120

Iter       E(tot)           E(Corr)          Delta-E          Residual     Time
  0  -1158.806040308     -4.170018293      0.182684189      0.018198535  117.15
                           *** Turning on DIIS ***
  1  -1158.901337195     -4.265315180     -0.095296887      0.009781579   98.61
  2  -1159.003802548     -4.367780533     -0.102465353      0.004805546   98.53
  3  -1159.026335071     -4.390313056     -0.022532522      0.003605056  103.32
  4  -1159.033516913     -4.397494898     -0.007181842      0.001855798   99.58
  5  -1159.036123722     -4.400101707     -0.002606809      0.001048162   99.24
  6  -1159.036749025     -4.400727010     -0.000625303      0.000536740  101.73
  7  -1159.036867190     -4.400845176     -0.000118165      0.000285306  100.73
  8  -1159.036910777     -4.400888762     -0.000043587      0.000153333  100.30
  9  -1159.036880914     -4.400858899      0.000029863      0.000071999  101.42
 10  -1159.036888917     -4.400866902     -0.000008003      0.000033107  100.31
 11  -1159.036885275     -4.400863260      0.000003641      0.000013932  101.67
 12  -1159.036884493     -4.400862478      0.000000783      0.000007349  100.24
               --- The Coupled-Cluster iterations have converged ---

----------------------
COUPLED CLUSTER ENERGY
----------------------

E(0)                                       ...  -1154.627479290
E(CORR)(strong-pairs)                      ...     -4.400862478
E(CORR)(weak-pairs)                        ...     -0.008542724
E(CORR)(corrected)                         ...     -4.409405202
E(TOT)                                     ...  -1159.036884493
Singles Norm <S|S>**1/2                    ...      0.162779381  
T1 diagnostic                              ...      0.014387801  

------------------
LARGEST AMPLITUDES
------------------
  67-> 87  67-> 87       0.072933
  62-> 87  62-> 87       0.038582
  43-> 87  43-> 87       0.038311
  65-> 88  65-> 88       0.036503
  71-> 87  71-> 87       0.036493
  72-> 87  72-> 87       0.036161
  54-> 91  54-> 91       0.036147
  76-> 88  76-> 88       0.034931
  67-> 88  67-> 88       0.034082
  47-> 87  47-> 87       0.033863
  41-> 87  41-> 87       0.033338
  43-> 87  -1-> -1       0.033305
  61-> 87  61-> 87       0.033123
  56-> 87  56-> 87       0.033055
  39-> 89  39-> 89       0.032400
  64-> 88  64-> 88       0.032047


-------------------------------------------
DLPNO BASED TRIPLES CORRECTION
-------------------------------------------

Singles multiplier          ...  1.000000
TCutTNO                     ... 1.000e-09
TCutMP2Pairs                ... 1.000e-06
TCutDOStrong                ... 1.000e-02
TCutMKNStrong               ... 1.000e-02
TCutDOWeak                  ... 2.000e-02
TCutMKNWeak                 ... 1.000e-01

Fragment selection                          .... not used
Fock matrix occ-virt block is zero --> Setting DT_in_Triples to false.
Number of Triples that are to be computed   ...     24466

 . . . . . . . . .
10% done  
20% done               (   1490.230 sec)
 . . . . . . . . .
30% done  
40% done  
50% done  
60% done  
70% done               (   2368.037 sec)
 . . . . . . . . .
80% done  
90% done               (   1269.704 sec)
Triples timings:
Total time for T0               ...  5623.907 sec
Total time for Iterative (T)    ...     0.000 sec
Total time of overall (T)       ...  5766.917 sec

Triples List generation         ...     0.000 sec
TNO generation                  ...   495.607 sec
Pair density generation         ...     0.061 sec
Look up tables                  ...     0.000 sec
Generating 3-index integrals    ...  3862.388 sec
  Make 4-ind.int. from 3-ind.int...   102.290 sec
  Projecting amplitudes (D + S) ...  1059.973 sec
  Downprojecting integrals      ...     0.019 sec
  Energy contr. (sum over a,b,c)...    17.767 sec
Fitting ET(->0)                 ...     0.000 sec

Everything after 3-index        ...  1265.583 sec

Timing details:
 TNO integrals                  ...  3955.744 sec
   Reading 3-index integrals    ...    43.951 sec
   Sorting integrals            ...   766.197 sec
       Sorting integrals 1      ...     0.015 sec
       Sorting integrals 2      ...   735.562 sec
       Sorting integrals 3      ...     5.009 sec
       Sorting integrals 4      ...     0.703 sec
       Sorting integrals 5      ...     3.868 sec
       Sorting integrals 6      ...    21.040 sec
   Calculating local VM**-1/2   ...     8.422 sec
   Orthogonal. integrals        ...    18.116 sec
   Multipl. 3-index integrals   ...  3119.058 sec
   All concerning IRIab (w/TNO) ...    50.033 sec

 Calculate W0/W1                ...    85.486 sec
 W 3-ext contribution           ...    41.284 sec
 W 3-int contribution           ...    22.659 sec
 Sorting W                      ...    19.265 sec

 V exchange contribution        ...     5.240 sec

 Timings for Triples without generation
     of 3-index integrals       ...  1265.562 sec
       0 weak pairs             ...   892.603 sec
       1 weak pair              ...   372.959 sec
       2 weak pairs             ...     0.000 sec
       3 weak pairs             ...     0.000 sec
  Extra time for extrapolation  ...     0.000 sec

Number of Triples   (0, 1, 2, 3 weak pairs; overall):  14808    9658       0       0  ( 24466)
Number of Atoms     (0, 1, 2, 3 weak pairs; overall):   26.7    24.3     0.0     0.0  (    43)
Number of PAOs      (0, 1, 2, 3 weak pairs; overall):  635.0   587.7     0.0     0.0  (   970)
Number of AuxFcns   (0, 1, 2, 3 weak pairs; overall):  518.1   384.1     0.0     0.0  (  2463)
Number of TNOs      (0, 1, 2, 3 weak pairs         ):   84.4    51.3     0.0     0.0
Aver. Number of NTNO, Atoms, PAOs, AuxFcns / Triples:  24466    71.3    25.8   616.3   465.2

Triples Correction (T)                     ...     -0.199821999
Final correlation energy                   ...     -4.609227201
E(CCSD)                                    ...  -1159.036884493
E(CCSD(T))                                 ...  -1159.236706491



--------------------------------------------------------------------------------
                                    TIMINGS
--------------------------------------------------------------------------------


Total execution time                   ...     9803.413 sec

Localization of occupied MO's          ...       18.820 sec (  0.2%)
Fock Matrix Formation                  ...      131.668 sec (  1.3%)
Global overlap, Fock, MKN matrices     ...        2.396 sec (  0.0%)
Differential overlap integrals         ...        2.998 sec (  0.0%)
Organizing maps                        ...        0.407 sec (  0.0%)
RI 3-index integral generations        ...       37.302 sec (  0.4%)
RI-PNO integral transformation         ...     2086.153 sec ( 21.3%)
Initial Guess                          ...      432.020 sec (  4.4%)
DIIS Solver                            ...       31.871 sec (  0.3%)
State Vector Update                    ...        0.149 sec (  0.0%)
Sigma-vector construction              ...     1315.116 sec ( 13.4%)
  <0|H|D>                              ...        0.002 sec (  0.0% of sigma)
  <D|H|D>(0-ext)                       ...      148.459 sec ( 11.3% of sigma)
  <D|H|D>(2-ext Fock)                  ...        0.110 sec (  0.0% of sigma)
  <D|H|D>(2-ext)                       ...      344.809 sec ( 26.2% of sigma)
  <D|H|D>(4-ext)                       ...       51.687 sec (  3.9% of sigma)
  <D|H|D>(4-ext-corr)                  ...      290.523 sec ( 22.1% of sigma)
  CCSD doubles correction              ...        6.315 sec (  0.5% of sigma)
  <S|H|S>                              ...       13.008 sec (  1.0% of sigma)
  <S|H|D>(1-ext)                       ...       10.686 sec (  0.8% of sigma)
  <D|H|S>(1-ext)                       ...        0.149 sec (  0.0% of sigma)
  <S|H|D>(3-ext)                       ...        1.700 sec (  0.1% of sigma)
  CCSD singles correction              ...        0.002 sec (  0.0% of sigma)
  Fock-dressing                        ...      234.319 sec ( 17.8% of sigma)
  Singles amplitudes                   ...       41.955 sec (  3.2% of sigma)
  (ik|jl)-dressing                     ...       91.988 sec (  7.0% of sigma)
  (ij|ab),(ia|jb)-dressing             ...       27.740 sec (  2.1% of sigma)
  Pair energies                        ...        0.029 sec (  0.0% of sigma)
Total Time for computing (T)           ...     5766.969 sec ( 58.8% of ALL)


Maximum memory used throughout the entire MDCI-calculation: 10166.5 MB

-------------------------   --------------------
FINAL SINGLE POINT ENERGY     -1159.236706491319
-------------------------   --------------------


                            ***************************************
                            *     ORCA property calculations      *
                            ***************************************


  WARNING: The energy has been calculated at the MDCI level but the densities
           used in the property calculations are still SCF densities
           MDCI response densities have not been calculated 
           use %mdci Density linearized end
           or  %mdci Density unrelaxed end
           or  %mdci Density orbopt end

                                    ---------------------
                                    Active property flags
                                    ---------------------
   (+) Dipole Moment


------------------------------------------------------------------------------
                       ORCA ELECTRIC PROPERTIES CALCULATION
------------------------------------------------------------------------------

Dipole Moment Calculation                       ... on
Quadrupole Moment Calculation                   ... off
Polarizability Calculation                      ... off
GBWName                                         ... input.gbw
Electron density                                ... input.scfp
The origin for moment calculation is the CENTER OF MASS  = (20.304146, 17.782105 17.220327)

-------------
DIPOLE MOMENT
-------------
                                X             Y             Z
Electronic contribution:     22.32312      -8.87143      -0.08634
Nuclear contribution   :    -31.55377      12.22703       5.14731
                        -----------------------------------------
Total Dipole Moment    :     -9.23065       3.35560       5.06098
                        -----------------------------------------
Magnitude (a.u.)       :     11.04891
Magnitude (Debye)      :     28.08409



--------------------
Rotational spectrum 
--------------------
 
Rotational constants in cm-1:     0.015909     0.005158     0.004890 
Rotational constants in MHz :   476.936663   154.618959   146.610320 

 Dipole components along the rotational axes: 
x,y,z [a.u.] :    10.120971     4.007697     1.892799 
x,y,z [Debye]:    25.725464    10.186756     4.811113 

 

Timings for individual modules:

Sum of individual times         ...    10708.317 sec (= 178.472 min)
GTO integral calculation        ...        3.134 sec (=   0.052 min)   0.0 %
SCF iterations                  ...      899.838 sec (=  14.997 min)   8.4 %
MDCI module                     ...     9805.345 sec (= 163.422 min)  91.6 %
                             ****ORCA TERMINATED NORMALLY****
TOTAL RUN TIME: 0 days 2 hours 58 minutes 31 seconds 114 msec
