Loading orca/5.0.3
  Loading requirement: gcc-runtime/11.3.1-gcc-11.3.1-jw6fhud
    numactl/2.0.14-gcc-11.3.1-tqvsbcd openssh/8.7p1-gcc-11.3.1-ddo4kmk
    libiconv/1.17-gcc-11.3.1-h3jdn2x xz/5.4.1-gcc-11.3.1-y32p7p3
    zlib/1.2.13-gcc-11.3.1-dwcx77k libxml2/2.10.3-gcc-11.3.1-m4mk5ab
    cuda/11.8.0-gcc-11.3.1-i5witig libpciaccess/0.17-gcc-11.3.1-qksiqer
    ncurses/6.4-gcc-11.3.1-afnu276 hwloc/2.9.1-gcc-11.3.1-qedjm66
    openssl/3.1.2-gcc-11.3.1-mgoa6lt libevent/2.1.12-gcc-11.3.1-bpr3m74
    pmix/4.2.2-gcc-11.3.1-du4y5e7 slurm/22.05.6-gcc-11.3.1-atym2np
    libnl/3.3.0-gcc-11.3.1-gh3muw7 rdma-core/41.0-gcc-11.3.1-isp54jw
    ucx/1.14.1-gcc-11.3.1-o3wj4kz openmpi/4.1.2-gcc-11.3.1-fs7u3kb

                                 *****************
                                 * O   R   C   A *
                                 *****************

                                            #,                                       
                                            ###                                      
                                            ####                                     
                                            #####                                    
                                            ######                                   
                                           ########,                                 
                                     ,,################,,,,,                         
                               ,,#################################,,                 
                          ,,##########################################,,             
                       ,#########################################, ''#####,          
                    ,#############################################,,   '####,        
                  ,##################################################,,,,####,       
                ,###########''''           ''''###############################       
              ,#####''   ,,,,##########,,,,          '''####'''          '####       
            ,##' ,,,,###########################,,,                        '##       
           ' ,,###''''                  '''############,,,                           
         ,,##''                                '''############,,,,        ,,,,,,###''
      ,#''                                            '''#######################'''  
     '                                                          ''''####''''         
             ,#######,   #######,   ,#######,      ##                                
            ,#'     '#,  ##    ##  ,#'     '#,    #''#        ######   ,####,        
            ##       ##  ##   ,#'  ##            #'  '#       #        #'  '#        
            ##       ##  #######   ##           ,######,      #####,   #    #        
            '#,     ,#'  ##    ##  '#,     ,#' ,#      #,         ##   #,  ,#        
             '#######'   ##     ##  '#######'  #'      '#     #####' # '####'        



                  #######################################################
                  #                        -***-                        #
                  #          Department of theory and spectroscopy      #
                  #    Directorship and core code : Frank Neese         #
                  #        Max Planck Institute fuer Kohlenforschung    #
                  #                Kaiser Wilhelm Platz 1               #
                  #                 D-45470 Muelheim/Ruhr               #
                  #                      Germany                        #
                  #                                                     #
                  #                  All rights reserved                #
                  #                        -***-                        #
                  #######################################################


                         Program Version 5.0.3 -  RELEASE  -


 With contributions from (in alphabetic order):
   Daniel Aravena         : Magnetic Suceptibility
   Michael Atanasov       : Ab Initio Ligand Field Theory (pilot matlab implementation)
   Alexander A. Auer      : GIAO ZORA, VPT2 properties, NMR spectrum
   Ute Becker             : Parallelization
   Giovanni Bistoni       : ED, misc. LED, open-shell LED, HFLD
   Martin Brehm           : Molecular dynamics
   Dmytro Bykov           : SCF Hessian
   Vijay G. Chilkuri      : MRCI spin determinant printing, contributions to CSF-ICE
   Dipayan Datta          : RHF DLPNO-CCSD density
   Achintya Kumar Dutta   : EOM-CC, STEOM-CC
   Dmitry Ganyushin       : Spin-Orbit,Spin-Spin,Magnetic field MRCI
   Miquel Garcia          : C-PCM and meta-GGA Hessian, CC/C-PCM, Gaussian charge scheme
   Yang Guo               : DLPNO-NEVPT2, F12-NEVPT2, CIM, IAO-localization
   Andreas Hansen         : Spin unrestricted coupled pair/coupled cluster methods
   Benjamin Helmich-Paris : MC-RPA, TRAH-SCF, COSX integrals
   Lee Huntington         : MR-EOM, pCC
   Robert Izsak           : Overlap fitted RIJCOSX, COSX-SCS-MP3, EOM
   Marcus Kettner         : VPT2
   Christian Kollmar      : KDIIS, OOCD, Brueckner-CCSD(T), CCSD density, CASPT2, CASPT2-K
   Simone Kossmann        : Meta GGA functionals, TD-DFT gradient, OOMP2, MP2 Hessian
   Martin Krupicka        : Initial AUTO-CI
   Lucas Lang             : DCDCAS
   Marvin Lechner         : AUTO-CI (C++ implementation), FIC-MRCC
   Dagmar Lenk            : GEPOL surface, SMD
   Dimitrios Liakos       : Extrapolation schemes; Compound Job, initial MDCI parallelization
   Dimitrios Manganas     : Further ROCIS development; embedding schemes
   Dimitrios Pantazis     : SARC Basis sets
   Anastasios Papadopoulos: AUTO-CI, single reference methods and gradients
   Taras Petrenko         : DFT Hessian,TD-DFT gradient, ASA, ECA, R-Raman, ABS, FL, XAS/XES, NRVS
   Peter Pinski           : DLPNO-MP2, DLPNO-MP2 Gradient
   Christoph Reimann      : Effective Core Potentials
   Marius Retegan         : Local ZFS, SOC
   Christoph Riplinger    : Optimizer, TS searches, QM/MM, DLPNO-CCSD(T), (RO)-DLPNO pert. Triples
   Tobias Risthaus        : Range-separated hybrids, TD-DFT gradient, RPA, STAB
   Michael Roemelt        : Original ROCIS implementation
   Masaaki Saitow         : Open-shell DLPNO-CCSD energy and density
   Barbara Sandhoefer     : DKH picture change effects
   Avijit Sen             : IP-ROCIS
   Kantharuban Sivalingam : CASSCF convergence, NEVPT2, FIC-MRCI
   Bernardo de Souza      : ESD, SOC TD-DFT
   Georgi Stoychev        : AutoAux, RI-MP2 NMR, DLPNO-MP2 response
   Willem Van den Heuvel  : Paramagnetic NMR
   Boris Wezisla          : Elementary symmetry handling
   Frank Wennmohs         : Technical directorship


 We gratefully acknowledge several colleagues who have allowed us to
 interface, adapt or use parts of their codes:
   Stefan Grimme, W. Hujo, H. Kruse, P. Pracht,  : VdW corrections, initial TS optimization,
                  C. Bannwarth, S. Ehlert          DFT functionals, gCP, sTDA/sTD-DF
   Ed Valeev, F. Pavosevic, A. Kumar             : LibInt (2-el integral package), F12 methods
   Garnet Chan, S. Sharma, J. Yang, R. Olivares  : DMRG
   Ulf Ekstrom                                   : XCFun DFT Library
   Mihaly Kallay                                 : mrcc  (arbitrary order and MRCC methods)
   Jiri Pittner, Ondrej Demel                    : Mk-CCSD
   Frank Weinhold                                : gennbo (NPA and NBO analysis)
   Christopher J. Cramer and Donald G. Truhlar   : smd solvation model
   Lars Goerigk                                  : TD-DFT with DH, B97 family of functionals
   V. Asgeirsson, H. Jonsson                     : NEB implementation
   FAccTs GmbH                                   : IRC, NEB, NEB-TS, DLPNO-Multilevel, CI-OPT
                                                   MM, QMMM, 2- and 3-layer-ONIOM, Crystal-QMMM,
                                                   LR-CPCM, SF, NACMEs, symmetry and pop. for TD-DFT,
                                                   nearIR, NL-DFT gradient (VV10), updates on ESD,
                                                   ML-optimized integration grids
   S Lehtola, MJT Oliveira, MAL Marques          : LibXC Library
   Liviu Ungur et al                             : ANISO software


 Your calculation uses the libint2 library for the computation of 2-el integrals
 For citations please refer to: http://libint.valeyev.net

 Your ORCA version has been built with support for libXC version: 5.1.0
 For citations please refer to: https://tddft.org/programs/libxc/

 This ORCA versions uses:
   CBLAS   interface :  Fast vector & matrix operations
   LAPACKE interface :  Fast linear algebra routines
   SCALAPACK package :  Parallel linear algebra routines
   Shared memory     :  Shared parallel matrices
   BLAS/LAPACK       :  OpenBLAS 0.3.15  USE64BITINT DYNAMIC_ARCH NO_AFFINITY Prescott SINGLE_THREADED
        Core in use  :  Prescott
   Copyright (c) 2011-2014, The OpenBLAS Project


================================================================================

----- Orbital basis set information -----
Your calculation utilizes the basis: cc-pVQZ 
       H, B-Ne : Obtained from the ccRepo (grant-hill.group.shef.ac.uk/ccrepo) Feb. 2017
                 T. H. Dunning, Jr., J. Chem. Phys. 90, 1007 (1989)
            He : Obtained from the ccRepo (grant-hill.group.shef.ac.uk/ccrepo) Feb. 2017
                 D. E. Woon, T. H. Dunning, Jr., J. Chem. Phys. 100, 2975 (1994)
  Li-Be, Na-Mg : Obtained from the ccRepo (grant-hill.group.shef.ac.uk/ccrepo) Feb. 2017
                 B. P. Prascher, D. E. Woon, K. A. Peterson, T. H. Dunning, Jr., A. K. Wilson, Theor. Chem. Acc. 128, 69 (2011)
         Al-Ar : Obtained from the ccRepo (grant-hill.group.shef.ac.uk/ccrepo) Feb. 2017
                 D. E. Woon, T. H. Dunning, Jr., J. Chem. Phys. 98, 1358 (1993)
            Ca : Obtained from the Peterson Research Group Website (tyr0.chem.wsu.edu/~kipeters) Feb. 2017
                 J. Koput, K. A. Peterson, J. Phys. Chem. 106, 9595 (2002)
         Sc-Zn : Obtained from the ccRepo (grant-hill.group.shef.ac.uk/ccrepo) Feb. 2017
                 N. B. Balabanov, K. A. Peterson, J. Chem. Phys. 123, 064107 (2005)
                 N. B. Balabanov, K. A. Peterson, J. Chem. Phys. 125, 074110 (2006)
         Ga-Kr : Obtained from the ccRepo (grant-hill.group.shef.ac.uk/ccrepo) Feb. 2017
                 A. K. Wilson, D. E. Woon, K. A. Peterson, T. H. Dunning, Jr., J. Chem. Phys. 110, 7667 (1999)

----- AuxC basis set information -----
Your calculation utilizes the auxiliary basis: cc-pVQZ/C 
  Obtained from the EMSL Basis Set Exchange (bse.pnl.gov) Feb. 2017
  H-He, B-F, Al-Ar, Ga-Kr : F. Weigend, A. Kohn, C. Hattig, J. Chem. Phys. 116, 3175 (2002)
             Li-Be, Na-Mg : C. Haettig, Phys. Chem. Chem. Phys. 7, 59 (2005)
                       Ne : C. Haettig, Phys. Chem. Chem. Phys. 7, 59 (2005)
                            F. Weigend, A. Kohn, C. Hattig, J. Chem. Phys. 116, 3175 (2002)
                    Sc-Zn : D. H. Bross, J. G. Hill, H. J. Werner, K. A. Peterson, J. Chem. Phys. 139, 094302 (2013)

================================================================================
                                        WARNINGS
                       Please study these warnings very carefully!
================================================================================


WARNING: Post HF methods need fully converged wavefunctions
  ===> : Setting SCFConvForced true
         You can overwrite this default with %scf ConvForced false 


WARNING: MDCI localization with Augmented Hessian Foster-Boys
  ===> : Switching off randomization!

INFO   : the flag for use of the SHARK integral package has been found!

================================================================================
                                       INPUT FILE
================================================================================
NAME = input
|  1> ! DLPNO-CCSD(T) cc-pVQZ cc-pVQZ/C TIGHTPNO TIGHTSCF
|  2> %maxcore 10000
|  3> %pal
|  4> nprocs 32
|  5> end
|  6> *xyz -1 1
|  7> H 4.321711229449 12.904788055622 8.261157219713
|  8> C 4.604535000000 11.906797000000 8.561864000000
|  9> H 5.197294000000 11.475739000000 7.746407000000
| 10> H 3.713914000000 11.280293000000 8.649403000000
| 11> C 5.379020000000 11.708409000000 9.846046000000
| 12> H 5.565921000000 10.636074000000 9.946973000000
| 13> H 4.754385000000 12.000268000000 10.695458000000
| 14> C 6.712556000000 12.434304000000 9.859837000000
| 15> H 6.618558000000 13.427913000000 10.300677000000
| 16> H 7.036557000000 12.582115000000 8.832895000000
| 17> N 7.803151000000 11.720012000000 10.492355000000
| 18> H 8.575493000000 11.454796000000 9.869280000000
| 19> C 8.070398000000 11.735588000000 11.782575000000
| 20> N 7.126527000000 12.106742000000 12.670792000000
| 21> H 6.166797000000 11.913658000000 12.451535000000
| 22> H 7.400964000000 12.023888000000 13.641174000000
| 23> N 9.270223000000 11.424433000000 12.219335000000
| 24> H 9.445966000000 11.490344000000 13.217512000000
| 25> H 10.005232000000 11.139135000000 11.573476000000
| 26> C 13.010530000000 10.618185000000 9.213618000000
| 27> H 13.621354000000 10.572567000000 10.100479000000
| 28> H 13.506538000000 10.872654000000 8.290378000000
| 29> C 11.664055000000 10.620126000000 9.349211000000
| 30> C 10.723895000000 11.013491000000 8.212906000000
| 31> O 11.140585000000 11.028437000000 7.027903000000
| 32> O 9.558582000000 11.348626000000 8.508915000000
| 33> O 11.095138000000 10.261065000000 10.472790000000
| 34> C 11.158945000000 8.315064000000 10.748393000000
| 35> H 10.620913000000 8.336186000000 11.687817000000
| 36> C 12.561722000000 8.256495000000 10.767369000000
| 37> H 13.082057000000 8.578832000000 11.652352000000
| 38> C 13.243714000000 8.051164000000 9.616804000000
| 39> C 12.557142000000 7.492443000000 8.456774000000
| 40> H 13.176559000000 7.183357000000 7.624992000000
| 41> C 11.247838000000 7.276680000000 8.471361000000
| 42> H 10.759753000000 6.755133000000 7.658295000000
| 43> C 10.378841000000 7.704304000000 9.605153000000
| 44> H 9.724176000000 8.504860000000 9.250376000000
| 45> O 9.613544000000 6.597956000000 10.009793000000
| 46> H 8.874926000000 6.907041000000 10.633941000000
| 47> C 14.767670000000 8.060081000000 9.592275000000
| 48> O 15.359489000000 8.200984000000 10.691670000000
| 49> O 15.318119000000 7.894659000000 8.498113000000
| 50> *
| 51> 
| 52>                          ****END OF INPUT****
================================================================================

                       ****************************
                       * Single Point Calculation *
                       ****************************

---------------------------------
CARTESIAN COORDINATES (ANGSTROEM)
---------------------------------
  H      4.321711   12.904788    8.261157
  C      4.604535   11.906797    8.561864
  H      5.197294   11.475739    7.746407
  H      3.713914   11.280293    8.649403
  C      5.379020   11.708409    9.846046
  H      5.565921   10.636074    9.946973
  H      4.754385   12.000268   10.695458
  C      6.712556   12.434304    9.859837
  H      6.618558   13.427913   10.300677
  H      7.036557   12.582115    8.832895
  N      7.803151   11.720012   10.492355
  H      8.575493   11.454796    9.869280
  C      8.070398   11.735588   11.782575
  N      7.126527   12.106742   12.670792
  H      6.166797   11.913658   12.451535
  H      7.400964   12.023888   13.641174
  N      9.270223   11.424433   12.219335
  H      9.445966   11.490344   13.217512
  H     10.005232   11.139135   11.573476
  C     13.010530   10.618185    9.213618
  H     13.621354   10.572567   10.100479
  H     13.506538   10.872654    8.290378
  C     11.664055   10.620126    9.349211
  C     10.723895   11.013491    8.212906
  O     11.140585   11.028437    7.027903
  O      9.558582   11.348626    8.508915
  O     11.095138   10.261065   10.472790
  C     11.158945    8.315064   10.748393
  H     10.620913    8.336186   11.687817
  C     12.561722    8.256495   10.767369
  H     13.082057    8.578832   11.652352
  C     13.243714    8.051164    9.616804
  C     12.557142    7.492443    8.456774
  H     13.176559    7.183357    7.624992
  C     11.247838    7.276680    8.471361
  H     10.759753    6.755133    7.658295
  C     10.378841    7.704304    9.605153
  H      9.724176    8.504860    9.250376
  O      9.613544    6.597956   10.009793
  H      8.874926    6.907041   10.633941
  C     14.767670    8.060081    9.592275
  O     15.359489    8.200984   10.691670
  O     15.318119    7.894659    8.498113

----------------------------
CARTESIAN COORDINATES (A.U.)
----------------------------
  NO LB      ZA    FRAG     MASS         X           Y           Z
   0 H     1.0000    0     1.008    8.166851   24.386515   15.611325
   1 C     6.0000    0    12.011    8.701310   22.500585   16.179578
   2 H     1.0000    0     1.008    9.821462   21.686004   14.638588
   3 H     1.0000    0     1.008    7.018280   21.316664   16.345003
   4 C     6.0000    0    12.011   10.164875   22.125686   18.606330
   5 H     1.0000    0     1.008   10.518066   20.099267   18.797055
   6 H     1.0000    0     1.008    8.984486   22.677220   20.211486
   7 C     6.0000    0    12.011   12.684892   23.497429   18.632392
   8 H     1.0000    0     1.008   12.507262   25.375078   19.465459
   9 H     1.0000    0     1.008   13.297166   23.776752   16.691753
  10 N     7.0000    0    14.007   14.745818   22.147613   19.827677
  11 H     1.0000    0     1.008   16.205333   21.646427   18.650236
  12 C     6.0000    0    12.011   15.250842   22.177047   22.265840
  13 N     7.0000    0    14.007   13.467184   22.878427   23.944327
  14 H     1.0000    0     1.008   11.653557   22.513551   23.529991
  15 H     1.0000    0     1.008   13.985795   22.721855   25.778083
  16 N     7.0000    0    14.007   17.518183   21.589050   23.091197
  17 H     1.0000    0     1.008   17.850289   21.713603   24.977478
  18 H     1.0000    0     1.008   18.907148   21.049915   21.870700
  19 C     6.0000    0    12.011   24.586339   20.065462   17.411215
  20 H     1.0000    0     1.008   25.740629   19.979256   19.087139
  21 H     1.0000    0     1.008   25.523658   20.546338   15.666544
  22 C     6.0000    0    12.011   22.041870   20.069130   17.667448
  23 C     6.0000    0    12.011   20.265225   20.812482   15.520143
  24 O     8.0000    0    15.999   21.052655   20.840726   13.280812
  25 O     8.0000    0    15.999   18.063102   21.445795   16.079519
  26 O     8.0000    0    15.999   20.966772   19.390603   19.790705
  27 C     6.0000    0    12.011   21.087350   15.713194   20.311519
  28 H     1.0000    0     1.008   20.070617   15.753109   22.086773
  29 C     6.0000    0    12.011   23.738214   15.602514   20.347379
  30 H     1.0000    0     1.008   24.721505   16.211643   22.019754
  31 C     6.0000    0    12.011   25.026992   15.214495   18.173126
  32 C     6.0000    0    12.011   23.729559   14.158665   15.980987
  33 H     1.0000    0     1.008   24.900088   13.574577   14.409147
  34 C     6.0000    0    12.011   21.255333   13.750932   16.008552
  35 H     1.0000    0     1.008   20.332986   12.765351   14.472080
  36 C     6.0000    0    12.011   19.613167   14.559025   18.151109
  37 H     1.0000    0     1.008   18.376030   16.071856   17.480677
  38 O     8.0000    0    15.999   18.166965   12.468330   18.915767
  39 H     1.0000    0     1.008   16.771180   13.052416   20.095236
  40 C     6.0000    0    12.011   27.906852   15.231346   18.126773
  41 O     8.0000    0    15.999   29.025228   15.497614   20.204328
  42 O     8.0000    0    15.999   28.947050   14.918743   16.059106

--------------------------------
INTERNAL COORDINATES (ANGSTROEM)
--------------------------------
 H      0   0   0     0.000000000000     0.00000000     0.00000000
 C      1   0   0     1.080000000000     0.00000000     0.00000000
 H      2   1   0     1.096423435673   107.32494737     0.00000000
 H      2   1   3     1.092417550288   109.80172709   245.26852314
 C      2   1   3     1.512715512875   119.44787055   122.72717575
 H      5   2   1     1.093169975509   107.13109633   180.62865284
 H      5   2   1     1.094006994882   109.37897976    65.32094285
 C      5   2   1     1.518364912003   113.24554360   300.26710910
 H      8   5   2     1.091070288517   111.30772740    92.41348556
 H      8   5   2     1.086938181814   108.55602066   335.54077459
 N      8   5   2     1.449030550269   115.42436416   218.31395529
 H     11   8   5     1.027168022889   115.36683830   115.20324143
 C     11   8   5     1.317699214231   125.04546405   274.17698628
 N     13  11   8     1.348175506173   120.42116378    19.42154230
 H     14  13  11     1.003213205657   118.21543970    31.23875234
 H     14  13  11     1.011840737571   114.79695410   175.78341900
 N     13  11   8     1.314213362529   120.51521266   201.25306571
 H     17  13  11     1.015670805576   117.98355138   177.24010206
 H     17  13  11     1.019199208578   120.93531732   358.13265614
 C     19  17  13     3.856440684293   170.96206483   103.91118604
 H     20  19  17     1.077826235634    86.78112680    73.16636381
 H     20  19  17     1.078494555213   148.25154014   292.56465930
 C     20  19  17     1.353286427463    33.18823257   238.39871507
 C     23  20  19     1.526376723437   122.58986307   148.08702447
 O     24  23  20     1.256218949477   120.06616952    17.77290658
 O     24  23  20     1.248155112266   117.88556427   199.69251292
 O     23  20  19     1.309588150470   121.18536511   327.09736272
 C     27  23  20     1.966455755632   112.17742588   285.75635638
 H     28  27  23     1.082793620079    94.94318903   181.26423441
 C     28  27  23     1.404127390256    94.33505036    61.57665749
 H     30  28  27     1.076031860162   118.79799479    76.64086739
 C     30  28  27     1.353171728514   119.89082374   269.35852726
 C     32  30  28     1.459184658611   119.79623249   341.26003242
 H     33  32  30     1.082161203707   116.81390270   190.62513241
 C     33  32  30     1.327043110511   121.18109510     5.34044825
 H     35  33  32     1.082272867991   121.00058607   187.36023447
 C     35  33  32     1.491141298016   122.46022742     5.97315226
 H     37  35  33     1.093317378939   108.19255833   112.02439610
 O     37  35  33     1.404784298358   108.09808963   231.25175448
 H     39  37  35     1.015209738455   109.49160109   192.40929711
 C     32  30  28     1.524179475871   121.11230267   176.55349511
 O     41  32  30     1.256492240404   117.22685425     3.34319781
 O     41  32  30     1.235940541421   117.30759381   181.57585387

---------------------------
INTERNAL COORDINATES (A.U.)
---------------------------
 H      0   0   0     0.000000000000     0.00000000     0.00000000
 C      1   0   0     2.040904224636     0.00000000     0.00000000
 H      2   1   0     2.071940020236   107.32494737     0.00000000
 H      2   1   3     2.064369993934   109.80172709   245.26852314
 C      2   1   3     2.858618037868   119.44787055   122.72717575
 H      5   2   1     2.065791871538   107.13109633   180.62865284
 H      5   2   1     2.067373608921   109.37897976    65.32094285
 C      5   2   1     2.869293855041   113.24554360   300.26710910
 H      8   5   2     2.061824038156   111.30772740    92.41348556
 H      8   5   2     2.054015488132   108.55602066   335.54077459
 N      8   5   2     2.738270899694   115.42436416   218.31395529
 H     11   8   5     1.941066256781   115.36683830   115.20324143
 C     11   8   5     2.490090641780   125.04546405   274.17698628
 N     13  11   8     2.547682487128   120.42116378    19.42154230
 H     14  13  11     1.895798212625   118.21543970    31.23875234
 H     14  13  11     1.912101885155   114.79695410   175.78341900
 N     13  11   8     2.483503336720   120.51521266   201.25306571
 H     17  13  11     1.919339664757   117.98355138   177.24010206
 H     17  13  11     1.926007380122   120.93531732   358.13265614
 C     19  17  13     7.287616745025   170.96206483   103.91118604
 H     20  19  17     2.036796405304    86.78112680    73.16636381
 H     20  19  17     2.038059346279   148.25154014   292.56465930
 C     20  19  17     2.557340728657    33.18823257   238.39871507
 C     23  20  19     2.884433984488   122.58986307   148.08702447
 O     24  23  20     2.373909778754   120.06616952    17.77290658
 O     24  23  20     2.358671334836   117.88556427   199.69251292
 O     23  20  19     2.474762952616   121.18536511   327.09736272
 C     27  23  20     3.716062832618   112.17742588   285.75635638
 H     28  27  23     2.046183401507    94.94318903   181.26423441
 C     28  27  23     2.653416224721    94.33505036    61.57665749
 H     30  28  27     2.033405527079   118.79799479    76.64086739
 C     30  28  27     2.557123979057   119.89082374   269.35852726
 C     32  30  28     2.757459383594   119.79623249   341.26003242
 H     33  32  30     2.044988307761   116.81390270   190.62513241
 C     33  32  30     2.507748046772   121.18109510     5.34044825
 H     35  33  32     2.045199322677   121.00058607   187.36023447
 C     35  33  32     2.817848680230   122.46022742     5.97315226
 H     37  35  33     2.066070423651   108.19255833   112.02439610
 O     37  35  33     2.654657601129   108.09808963   231.25175448
 H     39  37  35     1.918468374169   109.49160109   192.40929711
 C     32  30  28     2.880281788340   121.11230267   176.55349511
 O     41  32  30     2.374426223760   117.22685425     3.34319781
 O     41  32  30     2.335589141097   117.30759381   181.57585387

---------------------
BASIS SET INFORMATION
---------------------
There are 4 groups of distinct atoms

 Group   1 Type H   : 6s3p2d1f contracted to 4s3p2d1f pattern {3111/111/11/1}
 Group   2 Type C   : 21s6p3d2f1g contracted to 5s4p3d2f1g pattern {99111/3111/111/11/1}
 Group   3 Type N   : 21s6p3d2f1g contracted to 5s4p3d2f1g pattern {99111/3111/111/11/1}
 Group   4 Type O   : 21s6p3d2f1g contracted to 5s4p3d2f1g pattern {99111/3111/111/11/1}

Atom   0H    basis set group =>   1
Atom   1C    basis set group =>   2
Atom   2H    basis set group =>   1
Atom   3H    basis set group =>   1
Atom   4C    basis set group =>   2
Atom   5H    basis set group =>   1
Atom   6H    basis set group =>   1
Atom   7C    basis set group =>   2
Atom   8H    basis set group =>   1
Atom   9H    basis set group =>   1
Atom  10N    basis set group =>   3
Atom  11H    basis set group =>   1
Atom  12C    basis set group =>   2
Atom  13N    basis set group =>   3
Atom  14H    basis set group =>   1
Atom  15H    basis set group =>   1
Atom  16N    basis set group =>   3
Atom  17H    basis set group =>   1
Atom  18H    basis set group =>   1
Atom  19C    basis set group =>   2
Atom  20H    basis set group =>   1
Atom  21H    basis set group =>   1
Atom  22C    basis set group =>   2
Atom  23C    basis set group =>   2
Atom  24O    basis set group =>   4
Atom  25O    basis set group =>   4
Atom  26O    basis set group =>   4
Atom  27C    basis set group =>   2
Atom  28H    basis set group =>   1
Atom  29C    basis set group =>   2
Atom  30H    basis set group =>   1
Atom  31C    basis set group =>   2
Atom  32C    basis set group =>   2
Atom  33H    basis set group =>   1
Atom  34C    basis set group =>   2
Atom  35H    basis set group =>   1
Atom  36C    basis set group =>   2
Atom  37H    basis set group =>   1
Atom  38O    basis set group =>   4
Atom  39H    basis set group =>   1
Atom  40C    basis set group =>   2
Atom  41O    basis set group =>   4
Atom  42O    basis set group =>   4
---------------------------------
AUXILIARY/C BASIS SET INFORMATION
---------------------------------
There are 4 groups of distinct atoms

 Group   1 Type H   : 5s4p3d2f1g contracted to 5s4p3d2f1g pattern {11111/1111/111/11/1}
 Group   2 Type C   : 8s7p6d5f3g1h contracted to 8s7p6d5f3g1h pattern {11111111/1111111/111111/11111/111/1}
 Group   3 Type N   : 8s7p6d5f3g1h contracted to 8s7p6d5f3g1h pattern {11111111/1111111/111111/11111/111/1}
 Group   4 Type O   : 8s7p6d5f3g1h contracted to 8s7p6d5f3g1h pattern {11111111/1111111/111111/11111/111/1}

Atom   0H    basis set group =>   1
Atom   1C    basis set group =>   2
Atom   2H    basis set group =>   1
Atom   3H    basis set group =>   1
Atom   4C    basis set group =>   2
Atom   5H    basis set group =>   1
Atom   6H    basis set group =>   1
Atom   7C    basis set group =>   2
Atom   8H    basis set group =>   1
Atom   9H    basis set group =>   1
Atom  10N    basis set group =>   3
Atom  11H    basis set group =>   1
Atom  12C    basis set group =>   2
Atom  13N    basis set group =>   3
Atom  14H    basis set group =>   1
Atom  15H    basis set group =>   1
Atom  16N    basis set group =>   3
Atom  17H    basis set group =>   1
Atom  18H    basis set group =>   1
Atom  19C    basis set group =>   2
Atom  20H    basis set group =>   1
Atom  21H    basis set group =>   1
Atom  22C    basis set group =>   2
Atom  23C    basis set group =>   2
Atom  24O    basis set group =>   4
Atom  25O    basis set group =>   4
Atom  26O    basis set group =>   4
Atom  27C    basis set group =>   2
Atom  28H    basis set group =>   1
Atom  29C    basis set group =>   2
Atom  30H    basis set group =>   1
Atom  31C    basis set group =>   2
Atom  32C    basis set group =>   2
Atom  33H    basis set group =>   1
Atom  34C    basis set group =>   2
Atom  35H    basis set group =>   1
Atom  36C    basis set group =>   2
Atom  37H    basis set group =>   1
Atom  38O    basis set group =>   4
Atom  39H    basis set group =>   1
Atom  40C    basis set group =>   2
Atom  41O    basis set group =>   4
Atom  42O    basis set group =>   4


           ************************************************************
           *        Program running with 32 parallel MPI-processes    *
           *              working on a common directory               *
           ************************************************************
------------------------------------------------------------------------------
                           ORCA GTO INTEGRAL CALCULATION
------------------------------------------------------------------------------
------------------------------------------------------------------------------
                   ___                                                        
                  /   \      - P O W E R E D   B Y -                         
                 /     \                                                     
                 |  |  |   _    _      __       _____    __    __             
                 |  |  |  | |  | |    /  \     |  _  \  |  |  /  |          
                  \  \/   | |  | |   /    \    | | | |  |  | /  /          
                 / \  \   | |__| |  /  /\  \   | |_| |  |  |/  /          
                |  |  |   |  __  | /  /__\  \  |    /   |      \           
                |  |  |   | |  | | |   __   |  |    \   |  |\   \          
                \     /   | |  | | |  |  |  |  | |\  \  |  | \   \       
                 \___/    |_|  |_| |__|  |__|  |_| \__\ |__|  \__/        
                                                                              
                      - O R C A' S   B I G   F R I E N D -                    
                                      &                                       
                       - I N T E G R A L  F E E D E R -                       
                                                                              
 v1 FN, 2020, v2 2021                                                         
------------------------------------------------------------------------------


Reading SHARK input file input.SHARKINP.tmp ... ok
----------------------
SHARK INTEGRAL PACKAGE
----------------------

Number of atoms                             ...     43
Number of basis functions                   ...   2026
Number of shells                            ...    706
Maximum angular momentum                    ...      4
Integral batch strategy                     ... SHARK/LIBINT Hybrid
RI-J (if used) integral strategy            ... SPLIT-RIJ (Revised 2003 algorithm where possible)
Printlevel                                  ...      1
Contraction scheme used                     ... PARTIAL GENERAL contraction
Coulomb Range Separation                    ... NOT USED
Exchange Range Separation                   ... NOT USED
Finite Nucleus Model                        ... NOT USED
Auxiliary Coulomb fitting basis             ... NOT available
Auxiliary J/K fitting basis                 ... NOT available
Auxiliary Correlation fitting basis         ... AVAILABLE
   # of basis functions in Aux-C            ...   4136
   # of shells in Aux-C                     ...    990
   Maximum angular momentum in Aux-C        ...      5
Auxiliary 'external' fitting basis          ... NOT available
Integral threshold                          ...     2.500000e-11
Primitive cut-off                           ...     2.500000e-12
Primitive pair pre-selection threshold      ...     2.500000e-12

Calculating pre-screening integrals         ... done (  0.3 sec) Dimension = 706
Calculating pre-screening integrals (ORCA)  ... done (  0.5 sec) Dimension = 545
Organizing shell pair data                  ... done (  1.5 sec)
Shell pair information
Total number of shell pairs                 ...    249571
Shell pairs after pre-screening             ...    112805
Total number of primitive shell pairs       ...    314157
Primitive shell pairs kept                  ...    127721
          la=0 lb=0:  23661 shell pairs
          la=1 lb=0:  26801 shell pairs
          la=1 lb=1:   7087 shell pairs
          la=2 lb=0:  16642 shell pairs
          la=2 lb=1:   9267 shell pairs
          la=2 lb=2:   3080 shell pairs
          la=3 lb=0:   9307 shell pairs
          la=3 lb=1:   5364 shell pairs
          la=3 lb=2:   3423 shell pairs
          la=3 lb=3:    997 shell pairs
          la=4 lb=0:   3280 shell pairs
          la=4 lb=1:   1877 shell pairs
          la=4 lb=2:   1200 shell pairs
          la=4 lb=3:    685 shell pairs
          la=4 lb=4:    134 shell pairs

Calculating one electron integrals          ... done (  0.4 sec)
Calculating RI/C V-Matrix + Cholesky decomp.... done (  0.9 sec)
Calculating Nuclear repulsion               ... done (  0.0 sec) ENN=   2015.769589085828 Eh

SHARK setup successfully completed in   5.5 seconds

Maximum memory used throughout the entire GTOINT-calculation: 173.8 MB


           ************************************************************
           *        Program running with 32 parallel MPI-processes    *
           *              working on a common directory               *
           ************************************************************
-------------------------------------------------------------------------------
                                 ORCA SCF
-------------------------------------------------------------------------------

------------
SCF SETTINGS
------------
Hamiltonian:
 Ab initio Hamiltonian  Method          .... Hartree-Fock(GTOs)


General Settings:
 Integral files         IntName         .... input
 Hartree-Fock type      HFTyp           .... RHF
 Total Charge           Charge          ....   -1
 Multiplicity           Mult            ....    1
 Number of Electrons    NEL             ....  174
 Basis Dimension        Dim             .... 1865
 Nuclear Repulsion      ENuc            ....   2015.7695890858 Eh

Convergence Acceleration:
 DIIS                   CNVDIIS         .... on
   Start iteration      DIISMaxIt       ....    12
   Startup error        DIISStart       ....  0.200000
   # of expansion vecs  DIISMaxEq       ....     5
   Bias factor          DIISBfac        ....   1.050
   Max. coefficient     DIISMaxC        ....  10.000
 Trust-Rad. Augm. Hess. CNVTRAH         .... auto
   Auto Start mean grad. ratio tolernc. ....  1.125000
   Auto Start start iteration           ....    20
   Auto Start num. interpolation iter.  ....    10
   Max. Number of Micro iterations      ....    16
   Max. Number of Macro iterations      .... Maxiter - #DIIS iter
   Number of Davidson start vectors     ....     2
   Converg. threshold I  (grad. norm)   ....   1.000e-05
   Converg. threshold II (energy diff.) ....   1.000e-08
   Grad. Scal. Fac. for Micro threshold ....   0.100
   Minimum threshold for Micro iter.    ....   0.010
   NR start threshold (gradient norm)   ....   0.001
   Initial trust radius                 ....   0.400
   Minimum AH scaling param. (alpha)    ....   1.000
   Maximum AH scaling param. (alpha)    .... 1000.000
   Orbital update algorithm             .... Taylor
   White noise on init. David. guess    .... on
   Maximum white noise                  ....   0.010
   Quad. conv. algorithm                .... NR
 SOSCF                  CNVSOSCF        .... on
   Start iteration      SOSCFMaxIt      ....   150
   Startup grad/error   SOSCFStart      ....  0.003300
 Level Shifting         CNVShift        .... on
   Level shift para.    LevelShift      ....    0.2500
   Turn off err/grad.   ShiftErr        ....    0.0010
 Zerner damping         CNVZerner       .... off
 Static damping         CNVDamp         .... on
   Fraction old density DampFac         ....    0.7000
   Max. Damping (<1)    DampMax         ....    0.9800
   Min. Damping (>=0)   DampMin         ....    0.0000
   Turn off err/grad.   DampErr         ....    0.1000
 Fernandez-Rico         CNVRico         .... off

SCF Procedure:
 Maximum # iterations   MaxIter         ....   125
 SCF integral mode      SCFMode         .... Direct
   Integral package                     .... SHARK and LIBINT hybrid scheme
 Reset frequency        DirectResetFreq ....    20
 Integral Threshold     Thresh          ....  2.500e-11 Eh
 Primitive CutOff       TCut            ....  2.500e-12 Eh

Convergence Tolerance:
 Convergence Check Mode ConvCheckMode   .... Total+1el-Energy
 Convergence forced     ConvForced      .... 1
 Energy Change          TolE            ....  1.000e-08 Eh
 1-El. energy change                    ....  1.000e-05 Eh
 Orbital Gradient       TolG            ....  1.000e-05
 Orbital Rotation angle TolX            ....  1.000e-05
 DIIS Error             TolErr          ....  5.000e-07


Diagonalization of the overlap matrix:
Smallest eigenvalue                        ... 7.640e-06
Time for diagonalization                   ...    0.442 sec
Threshold for overlap eigenvalues          ... 1.000e-08
Number of eigenvalues below threshold      ... 0
Time for construction of square roots      ...    0.382 sec
Total time needed                          ...    0.838 sec

Time for model grid setup =    0.286 sec

------------------------------
INITIAL GUESS: MODEL POTENTIAL
------------------------------
Loading Hartree-Fock densities                     ... done
Calculating cut-offs                               ... done
Initializing the effective Hamiltonian             ... done
Setting up the integral package (SHARK)            ... done
Starting the Coulomb interaction                   ... done (   0.7 sec)
Reading the grid                                   ... done
Mapping shells                                     ... done
Starting the XC term evaluation                    ... done (   0.2 sec)
Transforming the Hamiltonian                       ... done (   0.3 sec)
Diagonalizing the Hamiltonian                      ... done (   0.4 sec)
Back transforming the eigenvectors                 ... done (   0.1 sec)
Now organizing SCF variables                       ... done
                      ------------------
                      INITIAL GUESS DONE (   2.3 sec)
                      ------------------
--------------
SCF ITERATIONS
--------------
ITER       Energy         Delta-E        Max-DP      RMS-DP      [F,P]     Damp
               ***  Starting incremental Fock matrix formation  ***
  0  -1153.5229186713   0.000000000000 0.21276447  0.00045225  0.3862336 0.7000
  1  -1153.9429608849  -0.420042213573 0.24591507  0.00045561  0.2318265 0.7000
                               ***Turning on DIIS***
  2  -1154.1928632818  -0.249902396916 0.15459566  0.00029653  0.1334234 0.7000
  3  -1156.9753603902  -2.782497108406 0.15116992  0.00045880  0.0792926 0.0000
  4  -1154.6186016557   2.356758734443 0.09391592  0.00013265  0.0085778 0.0000
  5  -1154.7294035352  -0.110801879454 0.03886429  0.00006073  0.0045351 0.0000
                      *** Initiating the SOSCF procedure ***
                           *** Shutting down DIIS ***
                      *** Re-Reading the Fockian *** 
                      *** Removing any level shift *** 
ITER      Energy       Delta-E        Grad      Rot      Max-DP    RMS-DP
  6  -1154.69748474   0.0319187996  0.002147  0.002147  0.023298  0.000034
               *** Restarting incremental Fock matrix formation ***
  7  -1154.71610742  -0.0186226855  0.001134  0.002393  0.012572  0.000021
  8  -1154.71617575  -0.0000683286  0.000475  0.002924  0.014617  0.000022
  9  -1154.71620861  -0.0000328569  0.000091  0.000264  0.003750  0.000006
 10  -1154.71621161  -0.0000030044  0.000066  0.000200  0.001246  0.000003
 11  -1154.71621207  -0.0000004556  0.000021  0.000158  0.000301  0.000001
 12  -1154.71621217  -0.0000001012  0.000010  0.000033  0.000249  0.000000
 13  -1154.71621219  -0.0000000243  0.000003  0.000013  0.000077  0.000000
                  ***Gradient check signals convergence***
              ***Rediagonalizing the Fockian in SOSCF/NRSCF***

               *****************************************************
               *                     SUCCESS                       *
               *           SCF CONVERGED AFTER  14 CYCLES          *
               *****************************************************


----------------
TOTAL SCF ENERGY
----------------

Total Energy       :        -1154.71621218 Eh          -31421.42557 eV

Components:
Nuclear Repulsion  :         2015.76958909 Eh           54851.87913 eV
Electronic Energy  :        -3170.48580126 Eh          -86273.30470 eV
One Electron Energy:        -5611.78800892 Eh         -152704.51507 eV
Two Electron Energy:         2441.30220765 Eh           66431.21037 eV

Virial components:
Potential Energy   :        -2308.67544119 Eh          -62822.25258 eV
Kinetic Energy     :         1153.95922901 Eh           31400.82701 eV
Virial Ratio       :            2.00065599


---------------
SCF CONVERGENCE
---------------

  Last Energy change         ...    1.4081e-08  Tolerance :   1.0000e-08
  Last MAX-Density change    ...    7.6029e-06  Tolerance :   1.0000e-07
  Last RMS-Density change    ...    3.8850e-08  Tolerance :   5.0000e-09
  Last Orbital Gradient      ...    1.6699e-06  Tolerance :   1.0000e-05
  Last Orbital Rotation      ...    5.9328e-06  Tolerance :   1.0000e-05

             **** THE GBW FILE WAS UPDATED (input.gbw) ****
             **** DENSITY input.scfp WAS UPDATED ****
             **** ENERGY FILE WAS UPDATED (input.en.tmp) ****
             **** THE GBW FILE WAS UPDATED (input.gbw) ****
             **** DENSITY input.scfp WAS UPDATED ****
----------------
ORBITAL ENERGIES
----------------

  NO   OCC          E(Eh)            E(eV) 
   0   2.0000     -20.480776      -557.3103 
   1   2.0000     -20.409512      -555.3711 
   2   2.0000     -20.341383      -553.5172 
   3   2.0000     -20.314617      -552.7888 
   4   2.0000     -20.308917      -552.6337 
   5   2.0000     -20.301925      -552.4435 
   6   2.0000     -15.576823      -423.8669 
   7   2.0000     -15.544807      -422.9957 
   8   2.0000     -15.526406      -422.4950 
   9   2.0000     -11.352966      -308.9299 
  10   2.0000     -11.214603      -305.1649 
  11   2.0000     -11.192537      -304.5644 
  12   2.0000     -11.188008      -304.4412 
  13   2.0000     -11.185933      -304.3847 
  14   2.0000     -11.171474      -303.9913 
  15   2.0000     -11.169487      -303.9372 
  16   2.0000     -11.155549      -303.5579 
  17   2.0000     -11.130322      -302.8715 
  18   2.0000     -11.129003      -302.8356 
  19   2.0000     -11.109777      -302.3124 
  20   2.0000     -11.103161      -302.1324 
  21   2.0000     -11.087898      -301.7170 
  22   2.0000     -11.065689      -301.1127 
  23   2.0000      -1.317429       -35.8491 
  24   2.0000      -1.277749       -34.7693 
  25   2.0000      -1.232461       -33.5370 
  26   2.0000      -1.201777       -32.7020 
  27   2.0000      -1.197815       -32.5942 
  28   2.0000      -1.178058       -32.0566 
  29   2.0000      -1.165988       -31.7281 
  30   2.0000      -1.101492       -29.9731 
  31   2.0000      -1.086804       -29.5734 
  32   2.0000      -1.023189       -27.8424 
  33   2.0000      -1.021767       -27.8037 
  34   2.0000      -0.910006       -24.7625 
  35   2.0000      -0.903598       -24.5882 
  36   2.0000      -0.895832       -24.3768 
  37   2.0000      -0.852341       -23.1934 
  38   2.0000      -0.818584       -22.2748 
  39   2.0000      -0.782172       -21.2840 
  40   2.0000      -0.745895       -20.2968 
  41   2.0000      -0.745755       -20.2930 
  42   2.0000      -0.711721       -19.3669 
  43   2.0000      -0.709537       -19.3075 
  44   2.0000      -0.682901       -18.5827 
  45   2.0000      -0.650426       -17.6990 
  46   2.0000      -0.631774       -17.1914 
  47   2.0000      -0.615094       -16.7376 
  48   2.0000      -0.605777       -16.4840 
  49   2.0000      -0.604922       -16.4608 
  50   2.0000      -0.592036       -16.1101 
  51   2.0000      -0.573888       -15.6163 
  52   2.0000      -0.570851       -15.5337 
  53   2.0000      -0.544735       -14.8230 
  54   2.0000      -0.537291       -14.6204 
  55   2.0000      -0.531870       -14.4729 
  56   2.0000      -0.511550       -13.9200 
  57   2.0000      -0.500565       -13.6211 
  58   2.0000      -0.485251       -13.2043 
  59   2.0000      -0.484251       -13.1772 
  60   2.0000      -0.474975       -12.9247 
  61   2.0000      -0.474514       -12.9122 
  62   2.0000      -0.467269       -12.7150 
  63   2.0000      -0.462189       -12.5768 
  64   2.0000      -0.458423       -12.4743 
  65   2.0000      -0.435702       -11.8561 
  66   2.0000      -0.434892       -11.8340 
  67   2.0000      -0.424901       -11.5621 
  68   2.0000      -0.422388       -11.4937 
  69   2.0000      -0.412978       -11.2377 
  70   2.0000      -0.409516       -11.1435 
  71   2.0000      -0.406640       -11.0652 
  72   2.0000      -0.392161       -10.6712 
  73   2.0000      -0.378252       -10.2928 
  74   2.0000      -0.366536        -9.9740 
  75   2.0000      -0.350234        -9.5303 
  76   2.0000      -0.349471        -9.5096 
  77   2.0000      -0.337470        -9.1830 
  78   2.0000      -0.293206        -7.9785 
  79   2.0000      -0.262285        -7.1371 
  80   2.0000      -0.239216        -6.5094 
  81   2.0000      -0.236979        -6.4485 
  82   2.0000      -0.234658        -6.3854 
  83   2.0000      -0.226797        -6.1715 
  84   2.0000      -0.210227        -5.7206 
  85   2.0000      -0.192888        -5.2488 
  86   2.0000      -0.172293        -4.6883 
  87   0.0000       0.120860         3.2888 
  88   0.0000       0.148044         4.0285 
  89   0.0000       0.159670         4.3448 
  90   0.0000       0.171978         4.6798 
  91   0.0000       0.181500         4.9389 
  92   0.0000       0.191750         5.2178 
  93   0.0000       0.198705         5.4070 
  94   0.0000       0.218885         5.9562 
  95   0.0000       0.222687         6.0596 
  96   0.0000       0.235725         6.4144 
  97   0.0000       0.236618         6.4387 
  98   0.0000       0.246478         6.7070 
  99   0.0000       0.250953         6.8288 
 100   0.0000       0.254354         6.9213 
 101   0.0000       0.263392         7.1673 
 102   0.0000       0.267030         7.2662 
 103   0.0000       0.279632         7.6092 
 104   0.0000       0.281618         7.6632 
 105   0.0000       0.297276         8.0893 
 106   0.0000       0.304600         8.2886 
 107   0.0000       0.312514         8.5039 
 108   0.0000       0.319392         8.6911 
 109   0.0000       0.323765         8.8101 
 110   0.0000       0.331325         9.0158 
 111   0.0000       0.336439         9.1550 
 112   0.0000       0.338443         9.2095 
 113   0.0000       0.344921         9.3858 
 114   0.0000       0.352584         9.5943 
 115   0.0000       0.354098         9.6355 
 116   0.0000       0.359664         9.7870 
 117   0.0000       0.362569         9.8660 
 118   0.0000       0.372764        10.1434 
 119   0.0000       0.387250        10.5376 
 120   0.0000       0.390950        10.6383 
 121   0.0000       0.400266        10.8918 
 122   0.0000       0.406159        11.0522 
 123   0.0000       0.409678        11.1479 
 124   0.0000       0.420816        11.4510 
 125   0.0000       0.424157        11.5419 
 126   0.0000       0.429662        11.6917 
 127   0.0000       0.436901        11.8887 
 128   0.0000       0.448484        12.2039 
 129   0.0000       0.452241        12.3061 
 130   0.0000       0.453628        12.3439 
 131   0.0000       0.454512        12.3679 
 132   0.0000       0.463944        12.6246 
 133   0.0000       0.468860        12.7583 
 134   0.0000       0.469992        12.7891 
 135   0.0000       0.473938        12.8965 
 136   0.0000       0.477293        12.9878 
 137   0.0000       0.478689        13.0258 
 138   0.0000       0.486400        13.2356 
 139   0.0000       0.488447        13.2913 
 140   0.0000       0.494818        13.4647 
 141   0.0000       0.499286        13.5863 
 142   0.0000       0.500374        13.6159 
 143   0.0000       0.509843        13.8735 
 144   0.0000       0.514263        13.9938 
 145   0.0000       0.515715        14.0333 
 146   0.0000       0.520070        14.1518 
 147   0.0000       0.522978        14.2310 
 148   0.0000       0.528987        14.3945 
 149   0.0000       0.531893        14.4736 
 150   0.0000       0.537574        14.6281 
 151   0.0000       0.540483        14.7073 
 152   0.0000       0.548316        14.9205 
 153   0.0000       0.549999        14.9662 
 154   0.0000       0.552642        15.0381 
 155   0.0000       0.553899        15.0724 
 156   0.0000       0.559056        15.2127 
 157   0.0000       0.567705        15.4480 
 158   0.0000       0.573994        15.6192 
 159   0.0000       0.576228        15.6800 
 160   0.0000       0.577351        15.7105 
 161   0.0000       0.583986        15.8911 
 162   0.0000       0.588052        16.0017 
 163   0.0000       0.591698        16.1009 
 164   0.0000       0.594322        16.1723 
 165   0.0000       0.601024        16.3547 
 166   0.0000       0.606173        16.4948 
 167   0.0000       0.609938        16.5973 
 168   0.0000       0.611749        16.6465 
 169   0.0000       0.614406        16.7188 
 170   0.0000       0.618683        16.8352 
 171   0.0000       0.621589        16.9143 
 172   0.0000       0.624932        17.0053 
 173   0.0000       0.628440        17.1007 
 174   0.0000       0.633109        17.2278 
 175   0.0000       0.638230        17.3671 
 176   0.0000       0.640425        17.4268 
 177   0.0000       0.649250        17.6670 
 178   0.0000       0.651759        17.7353 
 179   0.0000       0.654455        17.8086 
 180   0.0000       0.660661        17.9775 
 181   0.0000       0.662014        18.0143 
 182   0.0000       0.668201        18.1827 
 183   0.0000       0.672324        18.2949 
 184   0.0000       0.682181        18.5631 
 185   0.0000       0.687307        18.7026 
 186   0.0000       0.690011        18.7762 
 187   0.0000       0.693679        18.8760 
 188   0.0000       0.698756        19.0141 
 189   0.0000       0.708074        19.2677 
 190   0.0000       0.712054        19.3760 
 191   0.0000       0.727188        19.7878 
 192   0.0000       0.730137        19.8680 
 193   0.0000       0.732158        19.9230 
 194   0.0000       0.739374        20.1194 
 195   0.0000       0.742222        20.1969 
 196   0.0000       0.742969        20.2172 
 197   0.0000       0.753787        20.5116 
 198   0.0000       0.755524        20.5589 
 199   0.0000       0.759029        20.6542 
 200   0.0000       0.765674        20.8351 
 201   0.0000       0.770927        20.9780 
 202   0.0000       0.775805        21.1107 
 203   0.0000       0.783832        21.3292 
 204   0.0000       0.787266        21.4226 
 205   0.0000       0.798938        21.7402 
 206   0.0000       0.801920        21.8214 
 207   0.0000       0.805978        21.9318 
 208   0.0000       0.808759        22.0074 
 209   0.0000       0.812690        22.1144 
 210   0.0000       0.815430        22.1890 
 211   0.0000       0.821641        22.3580 
 212   0.0000       0.824863        22.4457 
 213   0.0000       0.828689        22.5498 
 214   0.0000       0.834720        22.7139 
 215   0.0000       0.835424        22.7330 
 216   0.0000       0.839686        22.8490 
 217   0.0000       0.842757        22.9326 
 218   0.0000       0.847945        23.0737 
 219   0.0000       0.858756        23.3679 
 220   0.0000       0.861488        23.4423 
 221   0.0000       0.863604        23.4999 
 222   0.0000       0.868611        23.6361 
 223   0.0000       0.870802        23.6957 
 224   0.0000       0.874178        23.7876 
 225   0.0000       0.878804        23.9135 
 226   0.0000       0.883791        24.0492 
 227   0.0000       0.897600        24.4249 
 228   0.0000       0.899666        24.4812 
 229   0.0000       0.901948        24.5433 
 230   0.0000       0.907460        24.6932 
 231   0.0000       0.916466        24.9383 
 232   0.0000       0.917163        24.9573 
 233   0.0000       0.920358        25.0442 
 234   0.0000       0.925546        25.1854 
 235   0.0000       0.928484        25.2653 
 236   0.0000       0.934391        25.4261 
 237   0.0000       0.938172        25.5289 
 238   0.0000       0.940008        25.5789 
 239   0.0000       0.944268        25.6948 
 240   0.0000       0.954269        25.9670 
 241   0.0000       0.957542        26.0560 
 242   0.0000       0.960950        26.1488 
 243   0.0000       0.962975        26.2039 
 244   0.0000       0.970367        26.4050 
 245   0.0000       0.972825        26.4719 
 246   0.0000       0.975016        26.5315 
 247   0.0000       0.980651        26.6849 
 248   0.0000       0.983545        26.7636 
 249   0.0000       0.985100        26.8059 
 250   0.0000       0.989317        26.9207 
 251   0.0000       0.992511        27.0076 
 252   0.0000       1.002656        27.2837 
 253   0.0000       1.007703        27.4210 
 254   0.0000       1.011446        27.5228 
 255   0.0000       1.019132        27.7320 
 256   0.0000       1.020706        27.7748 
 257   0.0000       1.024183        27.8694 
 258   0.0000       1.036919        28.2160 
 259   0.0000       1.043181        28.3864 
 260   0.0000       1.047964        28.5165 
 261   0.0000       1.049325        28.5536 
 262   0.0000       1.053856        28.6769 
 263   0.0000       1.058722        28.8093 
 264   0.0000       1.064002        28.9530 
 265   0.0000       1.067108        29.0375 
 266   0.0000       1.068663        29.0798 
 267   0.0000       1.074631        29.2422 
 268   0.0000       1.077585        29.3226 
 269   0.0000       1.078118        29.3371 
 270   0.0000       1.083234        29.4763 
 271   0.0000       1.087352        29.5884 
 272   0.0000       1.097475        29.8638 
 273   0.0000       1.098771        29.8991 
 274   0.0000       1.104979        30.0680 
 275   0.0000       1.107089        30.1254 
 276   0.0000       1.112257        30.2660 
 277   0.0000       1.119674        30.4679 
 278   0.0000       1.124953        30.6115 
 279   0.0000       1.128254        30.7013 
 280   0.0000       1.133961        30.8566 
 281   0.0000       1.137544        30.9541 
 282   0.0000       1.142545        31.0902 
 283   0.0000       1.149189        31.2710 
 284   0.0000       1.152819        31.3698 
 285   0.0000       1.156594        31.4725 
 286   0.0000       1.158115        31.5139 
 287   0.0000       1.161836        31.6152 
 288   0.0000       1.166424        31.7400 
 289   0.0000       1.173665        31.9371 
 290   0.0000       1.179412        32.0934 
 291   0.0000       1.181743        32.1569 
 292   0.0000       1.186066        32.2745 
 293   0.0000       1.187485        32.3131 
 294   0.0000       1.191791        32.4303 
 295   0.0000       1.200244        32.6603 
 296   0.0000       1.202067        32.7099 
 297   0.0000       1.204317        32.7711 
 298   0.0000       1.208925        32.8965 
 299   0.0000       1.210877        32.9496 
 300   0.0000       1.220202        33.2034 
 301   0.0000       1.221378        33.2354 
 302   0.0000       1.226456        33.3736 
 303   0.0000       1.230186        33.4751 
 304   0.0000       1.231933        33.5226 
 305   0.0000       1.235997        33.6332 
 306   0.0000       1.240584        33.7580 
 307   0.0000       1.249031        33.9879 
 308   0.0000       1.251908        34.0661 
 309   0.0000       1.261817        34.3358 
 310   0.0000       1.268556        34.5192 
 311   0.0000       1.271213        34.5915 
 312   0.0000       1.276735        34.7417 
 313   0.0000       1.282553        34.9001 
 314   0.0000       1.283074        34.9142 
 315   0.0000       1.284921        34.9645 
 316   0.0000       1.287374        35.0312 
 317   0.0000       1.296408        35.2771 
 318   0.0000       1.300998        35.4019 
 319   0.0000       1.304366        35.4936 
 320   0.0000       1.308626        35.6095 
 321   0.0000       1.317219        35.8434 
 322   0.0000       1.319700        35.9109 
 323   0.0000       1.324637        36.0452 
 324   0.0000       1.331177        36.2232 
 325   0.0000       1.332564        36.2609 
 326   0.0000       1.339700        36.4551 
 327   0.0000       1.344597        36.5883 
 328   0.0000       1.351937        36.7881 
 329   0.0000       1.357931        36.9512 
 330   0.0000       1.361269        37.0420 
 331   0.0000       1.363283        37.0968 
 332   0.0000       1.369027        37.2531 
 333   0.0000       1.372553        37.3491 
 334   0.0000       1.376419        37.4543 
 335   0.0000       1.381376        37.5892 
 336   0.0000       1.384802        37.6824 
 337   0.0000       1.387152        37.7463 
 338   0.0000       1.394078        37.9348 
 339   0.0000       1.398390        38.0521 
 340   0.0000       1.401553        38.1382 
 341   0.0000       1.407412        38.2976 
 342   0.0000       1.413244        38.4563 
 343   0.0000       1.419786        38.6343 
 344   0.0000       1.426812        38.8255 
 345   0.0000       1.435878        39.0722 
 346   0.0000       1.437730        39.1226 
 347   0.0000       1.442146        39.2428 
 348   0.0000       1.445914        39.3453 
 349   0.0000       1.446899        39.3721 
 350   0.0000       1.456584        39.6357 
 351   0.0000       1.467119        39.9223 
 352   0.0000       1.473460        40.0949 
 353   0.0000       1.477420        40.2026 
 354   0.0000       1.485412        40.4201 
 355   0.0000       1.486543        40.4509 
 356   0.0000       1.489943        40.5434 
 357   0.0000       1.499054        40.7913 
 358   0.0000       1.505477        40.9661 
 359   0.0000       1.513359        41.1806 
 360   0.0000       1.519850        41.3572 
 361   0.0000       1.528115        41.5821 
 362   0.0000       1.541149        41.9368 
 363   0.0000       1.545402        42.0525 
 364   0.0000       1.551551        42.2198 
 365   0.0000       1.552718        42.2516 
 366   0.0000       1.563822        42.5538 
 367   0.0000       1.574387        42.8413 
 368   0.0000       1.584279        43.1104 
 369   0.0000       1.601732        43.5853 
 370   0.0000       1.602081        43.5949 
 371   0.0000       1.606795        43.7231 
 372   0.0000       1.616658        43.9915 
 373   0.0000       1.619284        44.0629 
 374   0.0000       1.626015        44.2461 
 375   0.0000       1.632112        44.4120 
 376   0.0000       1.637643        44.5625 
 377   0.0000       1.643456        44.7207 
 378   0.0000       1.649333        44.8806 
 379   0.0000       1.657517        45.1033 
 380   0.0000       1.666060        45.3358 
 381   0.0000       1.670147        45.4470 
 382   0.0000       1.676863        45.6298 
 383   0.0000       1.686580        45.8942 
 384   0.0000       1.688923        45.9579 
 385   0.0000       1.692576        46.0573 
 386   0.0000       1.699045        46.2334 
 387   0.0000       1.714745        46.6606 
 388   0.0000       1.718272        46.7565 
 389   0.0000       1.724055        46.9139 
 390   0.0000       1.730400        47.0866 
 391   0.0000       1.742453        47.4146 
 392   0.0000       1.746032        47.5119 
 393   0.0000       1.753625        47.7185 
 394   0.0000       1.762006        47.9466 
 395   0.0000       1.764291        48.0088 
 396   0.0000       1.765763        48.0488 
 397   0.0000       1.768574        48.1254 
 398   0.0000       1.776982        48.3541 
 399   0.0000       1.784378        48.5554 
 400   0.0000       1.790691        48.7272 
 401   0.0000       1.799555        48.9684 
 402   0.0000       1.807936        49.1964 
 403   0.0000       1.810152        49.2568 
 404   0.0000       1.815590        49.4047 
 405   0.0000       1.821147        49.5559 
 406   0.0000       1.823075        49.6084 
 407   0.0000       1.837385        49.9978 
 408   0.0000       1.847985        50.2862 
 409   0.0000       1.855641        50.4946 
 410   0.0000       1.865181        50.7542 
 411   0.0000       1.871861        50.9359 
 412   0.0000       1.872658        50.9576 
 413   0.0000       1.877012        51.0761 
 414   0.0000       1.885021        51.2940 
 415   0.0000       1.893237        51.5176 
 416   0.0000       1.896716        51.6123 
 417   0.0000       1.904621        51.8274 
 418   0.0000       1.909958        51.9726 
 419   0.0000       1.912398        52.0390 
 420   0.0000       1.922336        52.3094 
 421   0.0000       1.926959        52.4352 
 422   0.0000       1.934603        52.6432 
 423   0.0000       1.936231        52.6875 
 424   0.0000       1.945863        52.9496 
 425   0.0000       1.951682        53.1080 
 426   0.0000       1.962305        53.3970 
 427   0.0000       1.965992        53.4974 
 428   0.0000       1.970542        53.6212 
 429   0.0000       1.973420        53.6995 
 430   0.0000       1.977853        53.8201 
 431   0.0000       1.979358        53.8611 
 432   0.0000       1.993035        54.2332 
 433   0.0000       2.000654        54.4406 
 434   0.0000       2.001970        54.4764 
 435   0.0000       2.010945        54.7206 
 436   0.0000       2.014935        54.8292 
 437   0.0000       2.016654        54.8759 
 438   0.0000       2.020195        54.9723 
 439   0.0000       2.026602        55.1466 
 440   0.0000       2.037748        55.4499 
 441   0.0000       2.042007        55.5658 
 442   0.0000       2.047208        55.7074 
 443   0.0000       2.053686        55.8836 
 444   0.0000       2.062139        56.1137 
 445   0.0000       2.068520        56.2873 
 446   0.0000       2.072922        56.4071 
 447   0.0000       2.075774        56.4847 
 448   0.0000       2.079967        56.5988 
 449   0.0000       2.087065        56.7919 
 450   0.0000       2.087641        56.8076 
 451   0.0000       2.092740        56.9463 
 452   0.0000       2.097624        57.0793 
 453   0.0000       2.105196        57.2853 
 454   0.0000       2.108767        57.3825 
 455   0.0000       2.111312        57.4517 
 456   0.0000       2.115369        57.5621 
 457   0.0000       2.119885        57.6850 
 458   0.0000       2.129219        57.9390 
 459   0.0000       2.131290        57.9954 
 460   0.0000       2.133020        58.0424 
 461   0.0000       2.142953        58.3127 
 462   0.0000       2.143735        58.3340 
 463   0.0000       2.148050        58.4514 
 464   0.0000       2.151114        58.5348 
 465   0.0000       2.156959        58.6938 
 466   0.0000       2.160458        58.7891 
 467   0.0000       2.165851        58.9358 
 468   0.0000       2.175158        59.1890 
 469   0.0000       2.179809        59.3156 
 470   0.0000       2.181681        59.3666 
 471   0.0000       2.187055        59.5128 
 472   0.0000       2.195669        59.7472 
 473   0.0000       2.198898        59.8351 
 474   0.0000       2.200164        59.8695 
 475   0.0000       2.205875        60.0249 
 476   0.0000       2.213893        60.2431 
 477   0.0000       2.219607        60.3986 
 478   0.0000       2.221425        60.4481 
 479   0.0000       2.225335        60.5544 
 480   0.0000       2.229613        60.6708 
 481   0.0000       2.234317        60.7989 
 482   0.0000       2.238747        60.9194 
 483   0.0000       2.242815        61.0301 
 484   0.0000       2.251624        61.2698 
 485   0.0000       2.254471        61.3473 
 486   0.0000       2.258517        61.4574 
 487   0.0000       2.259981        61.4972 
 488   0.0000       2.270991        61.7968 
 489   0.0000       2.276463        61.9457 
 490   0.0000       2.278951        62.0134 
 491   0.0000       2.279713        62.0341 
 492   0.0000       2.284212        62.1566 
 493   0.0000       2.290157        62.3183 
 494   0.0000       2.292469        62.3812 
 495   0.0000       2.300701        62.6052 
 496   0.0000       2.304197        62.7004 
 497   0.0000       2.308853        62.8271 
 498   0.0000       2.310768        62.8792 
 499   0.0000       2.314878        62.9910 
 500   0.0000       2.319708        63.1225 
 501   0.0000       2.327562        63.3362 
 502   0.0000       2.329941        63.4009 
 503   0.0000       2.334173        63.5161 
 504   0.0000       2.335389        63.5492 
 505   0.0000       2.342728        63.7489 
 506   0.0000       2.352786        64.0226 
 507   0.0000       2.355068        64.0847 
 508   0.0000       2.356719        64.1296 
 509   0.0000       2.362796        64.2949 
 510   0.0000       2.367906        64.4340 
 511   0.0000       2.373594        64.5888 
 512   0.0000       2.376568        64.6697 
 513   0.0000       2.382929        64.8428 
 514   0.0000       2.386597        64.9426 
 515   0.0000       2.394450        65.1563 
 516   0.0000       2.400508        65.3212 
 517   0.0000       2.403786        65.4103 
 518   0.0000       2.406382        65.4810 
 519   0.0000       2.410350        65.5890 
 520   0.0000       2.413591        65.6772 
 521   0.0000       2.421481        65.8919 
 522   0.0000       2.424148        65.9644 
 523   0.0000       2.433106        66.2082 
 524   0.0000       2.438575        66.3570 
 525   0.0000       2.441441        66.4350 
 526   0.0000       2.445832        66.5545 
 527   0.0000       2.450107        66.6708 
 528   0.0000       2.456279        66.8388 
 529   0.0000       2.464505        67.0626 
 530   0.0000       2.470947        67.2379 
 531   0.0000       2.474453        67.3333 
 532   0.0000       2.479564        67.4724 
 533   0.0000       2.481481        67.5245 
 534   0.0000       2.485628        67.6374 
 535   0.0000       2.490159        67.7607 
 536   0.0000       2.492973        67.8372 
 537   0.0000       2.497458        67.9593 
 538   0.0000       2.502024        68.0835 
 539   0.0000       2.508850        68.2693 
 540   0.0000       2.515989        68.4635 
 541   0.0000       2.521480        68.6130 
 542   0.0000       2.524160        68.6859 
 543   0.0000       2.526536        68.7505 
 544   0.0000       2.533473        68.9393 
 545   0.0000       2.536018        69.0086 
 546   0.0000       2.541724        69.1638 
 547   0.0000       2.543503        69.2122 
 548   0.0000       2.549952        69.3877 
 549   0.0000       2.557122        69.5828 
 550   0.0000       2.561287        69.6962 
 551   0.0000       2.566802        69.8462 
 552   0.0000       2.572754        70.0082 
 553   0.0000       2.576537        70.1111 
 554   0.0000       2.580560        70.2206 
 555   0.0000       2.583997        70.3141 
 556   0.0000       2.587829        70.4184 
 557   0.0000       2.597748        70.6883 
 558   0.0000       2.601005        70.7769 
 559   0.0000       2.603261        70.8383 
 560   0.0000       2.610377        71.0320 
 561   0.0000       2.612232        71.0824 
 562   0.0000       2.614028        71.1313 
 563   0.0000       2.615992        71.1848 
 564   0.0000       2.623916        71.4004 
 565   0.0000       2.631066        71.5950 
 566   0.0000       2.635470        71.7148 
 567   0.0000       2.637646        71.7740 
 568   0.0000       2.642245        71.8991 
 569   0.0000       2.651101        72.1401 
 570   0.0000       2.652942        72.1902 
 571   0.0000       2.657455        72.3130 
 572   0.0000       2.661207        72.4151 
 573   0.0000       2.667593        72.5889 
 574   0.0000       2.672374        72.7190 
 575   0.0000       2.676699        72.8367 
 576   0.0000       2.679696        72.9182 
 577   0.0000       2.684431        73.0471 
 578   0.0000       2.689411        73.1826 
 579   0.0000       2.691682        73.2444 
 580   0.0000       2.697694        73.4080 
 581   0.0000       2.703870        73.5760 
 582   0.0000       2.707095        73.6638 
 583   0.0000       2.709498        73.7292 
 584   0.0000       2.712964        73.8235 
 585   0.0000       2.723088        74.0990 
 586   0.0000       2.726024        74.1789 
 587   0.0000       2.731379        74.3246 
 588   0.0000       2.735269        74.4304 
 589   0.0000       2.740876        74.5830 
 590   0.0000       2.743505        74.6546 
 591   0.0000       2.744577        74.6837 
 592   0.0000       2.749792        74.8257 
 593   0.0000       2.752341        74.8950 
 594   0.0000       2.758039        75.0501 
 595   0.0000       2.768083        75.3234 
 596   0.0000       2.773179        75.4620 
 597   0.0000       2.773995        75.4842 
 598   0.0000       2.777301        75.5742 
 599   0.0000       2.780934        75.6731 
 600   0.0000       2.782894        75.7264 
 601   0.0000       2.793009        76.0016 
 602   0.0000       2.798584        76.1533 
 603   0.0000       2.802961        76.2724 
 604   0.0000       2.807522        76.3965 
 605   0.0000       2.823054        76.8192 
 606   0.0000       2.826218        76.9053 
 607   0.0000       2.828886        76.9779 
 608   0.0000       2.834012        77.1174 
 609   0.0000       2.838037        77.2269 
 610   0.0000       2.838618        77.2427 
 611   0.0000       2.846850        77.4667 
 612   0.0000       2.848547        77.5129 
 613   0.0000       2.850911        77.5772 
 614   0.0000       2.856595        77.7319 
 615   0.0000       2.861154        77.8560 
 616   0.0000       2.867787        78.0364 
 617   0.0000       2.875347        78.2422 
 618   0.0000       2.877876        78.3110 
 619   0.0000       2.882730        78.4431 
 620   0.0000       2.887339        78.5685 
 621   0.0000       2.895393        78.7877 
 622   0.0000       2.902086        78.9698 
 623   0.0000       2.908902        79.1553 
 624   0.0000       2.913734        79.2867 
 625   0.0000       2.916767        79.3693 
 626   0.0000       2.921495        79.4979 
 627   0.0000       2.924618        79.5829 
 628   0.0000       2.929320        79.7108 
 629   0.0000       2.931700        79.7756 
 630   0.0000       2.938004        79.9472 
 631   0.0000       2.943609        80.0997 
 632   0.0000       2.948576        80.2348 
 633   0.0000       2.955996        80.4367 
 634   0.0000       2.958825        80.5137 
 635   0.0000       2.963363        80.6372 
 636   0.0000       2.966469        80.7217 
 637   0.0000       2.978556        81.0506 
 638   0.0000       2.983169        81.1761 
 639   0.0000       2.989420        81.3462 
 640   0.0000       2.990316        81.3706 
 641   0.0000       2.994784        81.4922 
 642   0.0000       3.005058        81.7718 
 643   0.0000       3.014348        82.0246 
 644   0.0000       3.018744        82.1442 
 645   0.0000       3.023096        82.2626 
 646   0.0000       3.028906        82.4207 
 647   0.0000       3.031706        82.4969 
 648   0.0000       3.035402        82.5975 
 649   0.0000       3.040783        82.7439 
 650   0.0000       3.048447        82.9524 
 651   0.0000       3.051040        83.0230 
 652   0.0000       3.055878        83.1547 
 653   0.0000       3.058951        83.2383 
 654   0.0000       3.066223        83.4362 
 655   0.0000       3.073678        83.6390 
 656   0.0000       3.078966        83.7829 
 657   0.0000       3.080467        83.8238 
 658   0.0000       3.086242        83.9809 
 659   0.0000       3.096010        84.2467 
 660   0.0000       3.099130        84.3316 
 661   0.0000       3.102937        84.4352 
 662   0.0000       3.109357        84.6099 
 663   0.0000       3.115292        84.7714 
 664   0.0000       3.119713        84.8917 
 665   0.0000       3.123780        85.0024 
 666   0.0000       3.128091        85.1197 
 667   0.0000       3.130893        85.1959 
 668   0.0000       3.140145        85.4477 
 669   0.0000       3.142287        85.5060 
 670   0.0000       3.145347        85.5893 
 671   0.0000       3.158128        85.9370 
 672   0.0000       3.164947        86.1226 
 673   0.0000       3.168723        86.2253 
 674   0.0000       3.176606        86.4398 
 675   0.0000       3.178248        86.4845 
 676   0.0000       3.181596        86.5756 
 677   0.0000       3.190922        86.8294 
 678   0.0000       3.195622        86.9573 
 679   0.0000       3.202444        87.1429 
 680   0.0000       3.206916        87.2646 
 681   0.0000       3.215434        87.4964 
 682   0.0000       3.222225        87.6812 
 683   0.0000       3.225743        87.7769 
 684   0.0000       3.233758        87.9950 
 685   0.0000       3.239785        88.1590 
 686   0.0000       3.244840        88.2966 
 687   0.0000       3.253232        88.5249 
 688   0.0000       3.256481        88.6133 
 689   0.0000       3.264393        88.8286 
 690   0.0000       3.268636        88.9441 
 691   0.0000       3.277237        89.1782 
 692   0.0000       3.282117        89.3109 
 693   0.0000       3.284721        89.3818 
 694   0.0000       3.292685        89.5985 
 695   0.0000       3.295510        89.6754 
 696   0.0000       3.299054        89.7718 
 697   0.0000       3.300939        89.8231 
 698   0.0000       3.307017        89.9885 
 699   0.0000       3.318304        90.2956 
 700   0.0000       3.324317        90.4593 
 701   0.0000       3.335569        90.7654 
 702   0.0000       3.338314        90.8401 
 703   0.0000       3.343413        90.9789 
 704   0.0000       3.346436        91.0612 
 705   0.0000       3.357483        91.3618 
 706   0.0000       3.360307        91.4386 
 707   0.0000       3.371385        91.7401 
 708   0.0000       3.374601        91.8276 
 709   0.0000       3.377820        91.9152 
 710   0.0000       3.382428        92.0405 
 711   0.0000       3.386550        92.1527 
 712   0.0000       3.391187        92.2789 
 713   0.0000       3.401974        92.5724 
 714   0.0000       3.406957        92.7080 
 715   0.0000       3.408640        92.7538 
 716   0.0000       3.417102        92.9841 
 717   0.0000       3.421752        93.1106 
 718   0.0000       3.425754        93.2195 
 719   0.0000       3.433347        93.4261 
 720   0.0000       3.435166        93.4756 
 721   0.0000       3.440603        93.6236 
 722   0.0000       3.445799        93.7650 
 723   0.0000       3.448036        93.8258 
 724   0.0000       3.454438        94.0000 
 725   0.0000       3.460171        94.1560 
 726   0.0000       3.466582        94.3305 
 727   0.0000       3.473925        94.5303 
 728   0.0000       3.483608        94.7938 
 729   0.0000       3.486091        94.8614 
 730   0.0000       3.496905        95.1556 
 731   0.0000       3.503544        95.3363 
 732   0.0000       3.511362        95.5490 
 733   0.0000       3.516386        95.6857 
 734   0.0000       3.528625        96.0188 
 735   0.0000       3.531240        96.0899 
 736   0.0000       3.537861        96.2701 
 737   0.0000       3.542761        96.4034 
 738   0.0000       3.544919        96.4622 
 739   0.0000       3.553607        96.6986 
 740   0.0000       3.560710        96.8919 
 741   0.0000       3.565092        97.0111 
 742   0.0000       3.569245        97.1241 
 743   0.0000       3.572919        97.2241 
 744   0.0000       3.580398        97.4276 
 745   0.0000       3.589429        97.6733 
 746   0.0000       3.595607        97.8414 
 747   0.0000       3.602642        98.0329 
 748   0.0000       3.607804        98.1733 
 749   0.0000       3.614470        98.3547 
 750   0.0000       3.615547        98.3840 
 751   0.0000       3.624710        98.6334 
 752   0.0000       3.639078        99.0244 
 753   0.0000       3.646268        99.2200 
 754   0.0000       3.655064        99.4593 
 755   0.0000       3.658680        99.5578 
 756   0.0000       3.665136        99.7334 
 757   0.0000       3.675073       100.0038 
 758   0.0000       3.682587       100.2083 
 759   0.0000       3.687359       100.3381 
 760   0.0000       3.698706       100.6469 
 761   0.0000       3.706938       100.8709 
 762   0.0000       3.709778       100.9482 
 763   0.0000       3.710341       100.9635 
 764   0.0000       3.722896       101.3052 
 765   0.0000       3.726267       101.3969 
 766   0.0000       3.732940       101.5785 
 767   0.0000       3.745089       101.9090 
 768   0.0000       3.752902       102.1217 
 769   0.0000       3.762801       102.3910 
 770   0.0000       3.773251       102.6754 
 771   0.0000       3.785526       103.0094 
 772   0.0000       3.786957       103.0483 
 773   0.0000       3.789095       103.1065 
 774   0.0000       3.796574       103.3100 
 775   0.0000       3.799200       103.3815 
 776   0.0000       3.800269       103.4106 
 777   0.0000       3.812211       103.7355 
 778   0.0000       3.816512       103.8526 
 779   0.0000       3.820257       103.9545 
 780   0.0000       3.823727       104.0489 
 781   0.0000       3.832326       104.2829 
 782   0.0000       3.835022       104.3563 
 783   0.0000       3.840118       104.4949 
 784   0.0000       3.845635       104.6450 
 785   0.0000       3.849878       104.7605 
 786   0.0000       3.854168       104.8773 
 787   0.0000       3.859246       105.0154 
 788   0.0000       3.872367       105.3725 
 789   0.0000       3.879465       105.5656 
 790   0.0000       3.893037       105.9349 
 791   0.0000       3.895778       106.0095 
 792   0.0000       3.900522       106.1386 
 793   0.0000       3.907162       106.3193 
 794   0.0000       3.911005       106.4239 
 795   0.0000       3.915870       106.5562 
 796   0.0000       3.920633       106.6859 
 797   0.0000       3.926938       106.8574 
 798   0.0000       3.932093       106.9977 
 799   0.0000       3.942136       107.2710 
 800   0.0000       3.943816       107.3167 
 801   0.0000       3.952627       107.5565 
 802   0.0000       3.957770       107.6964 
 803   0.0000       3.967060       107.9492 
 804   0.0000       3.975597       108.1815 
 805   0.0000       3.975852       108.1884 
 806   0.0000       3.986194       108.4699 
 807   0.0000       3.991110       108.6036 
 808   0.0000       3.999525       108.8326 
 809   0.0000       4.004058       108.9560 
 810   0.0000       4.013178       109.2041 
[...]
Strategy for PNO selection                  .... occupation number selection
Pair density normalization                  .... MP2 norm
Spin component scaling                      .... not used

PASS-1: Formation of initial guess LMP2 amplitudes
Initial amplitudes guess done. Entering LMP2 iteration loop:
   Max. no of iterations          ...  50
   Energy convergence tolerance   ...    1.0e-07
   Residual convergence tolerance ...    5.0e-07
   Fock matrix cutoff             ...    1.0e-05 Eh
   DIIS convergence acceleration parameters:
        Max # vectors in DIIS     ... 7
        Start iteration of DIIS   ... 0
        Levelshift                ... 2.000e-01
        Damping factor 1          ... 5.000e-01
        Damping factor 2          ... 1.000e+00
   L-MP2 PNO cut-off              ...   1.0e-09
   L-MP2 PNO cut-off (core)       ...   1.0e-11
                           *** Turning on DIIS ***
LMP2-Iter=   0:  ELMP2= -4.577974603080  DE=   1.1e-01 RMAX=   1.2e-02
LMP2-Iter=   1:  ELMP2= -4.635060256348  DE=   5.7e-02 RMAX=   6.6e-03
LMP2-Iter=   2:  ELMP2= -4.647154821066  DE=   1.2e-02 RMAX=   2.3e-03
LMP2-Iter=   3:  ELMP2= -4.649007552001  DE=   1.9e-03 RMAX=   1.1e-03
LMP2-Iter=   4:  ELMP2= -4.649078676888  DE=   7.1e-05 RMAX=   3.2e-04
LMP2-Iter=   5:  ELMP2= -4.649035479955  DE=   4.3e-05 RMAX=   1.2e-04
LMP2-Iter=   6:  ELMP2= -4.649030090772  DE=   5.4e-06 RMAX=   4.0e-05
LMP2-Iter=   7:  ELMP2= -4.649032576460  DE=   2.5e-06 RMAX=   1.3e-05
LMP2-Iter=   8:  ELMP2= -4.649033640524  DE=   1.1e-06 RMAX=   3.4e-06
LMP2-Iter=   9:  ELMP2= -4.649033524623  DE=   1.2e-07 RMAX=   9.5e-07
LMP2-Iter=  10:  ELMP2= -4.649033456671  DE=   6.8e-08 RMAX=   2.3e-07
LMP2-Iter=  11:  ELMP2= -4.649033386749  DE=   7.0e-08 RMAX=   6.6e-08 => CONVERGED
PASS-2: Formation of Pair natural orbitals
   .... Finished loop over pairs

 PNO Occupation Number Statistics: 
  | Av. % of trace(Dij) retained        ...  97.477378009904
  | sigma^2 in % of trace(Dij) retained ...   1.44e+01
  | Av. % of trace(Di) retained         ...  99.999498836721
  | sigma^2 in % of trace(Di) retained  ...   2.49e-08
 Distributions of % trace(Dij) recovered:
  |       >= 99.9  ...   231 ( 13.5 % of all pairs)
  |   [60.0, 70.0) ...     1 (  0.1 % of all pairs)
  |   [70.0, 80.0) ...    15 (  0.9 % of all pairs)
  |   [80.0, 90.0) ...    71 (  4.1 % of all pairs)
  |   [90.0, 99.0) ...   866 ( 50.6 % of all pairs)
  |   [99.0, 99.9) ...   529 ( 30.9 % of all pairs)
 Distributions of % trace(Di) recovered :
  |       >= 99.9  ...    64 (100.0 % of all I-pairs )

Making pair pair interaction lists          ... done

                       ===========================
                       1150 OF 1713 PAIRS ARE KEPT
                       ===========================

Total time spent in the initial guess                 ...  1827.157 sec
L-MP2 correlation energy (all non-screened pairs)     ...      -4.649033386749 Eh
L-MP2 PNO error correction                            ...      -0.000350546531 Eh
                                                          --------------------
Initial total L-MP2 energy (non-screened pairs)       ...      -4.649383933280 Eh

Initial PNO correlation energy                        ...      -4.637316621793 Eh
sum of pair energies estimated for screened out pairs ...      -0.000149705528 Eh
sum of MP2 pair energies for pairs that were not kept ...      -0.002553993284 Eh
sum of PNO error estimates for the kept pairs         ...      -0.009947645136 Eh
                                                          --------------------
sum of all corrections                                         -0.012651343948
Initial total correlation energy                               -4.649967965741
Thresholds for map construction and integral transformation for fine MP2 and CCSD(T) calculation:
   TCutMKN   ...     1.0e-03
   TCutDO    ...     5.0e-03
   TCutPairs ...     1.0e-05
   TCutCMO   ...     1.0e-03
   TCutCPAO  ...     1.0e-03

Time for aux screen maps:            0.029
Time for maps after fine MP2:            0.226
-----------------------------
LOCAL RI TRANSFORMATION (IJV)
-----------------------------

Orbital window:      23 to 86
Basis functions:   1865 (545 shells)
Aux. functions:    4136 (990 shells)
Use SHARK:           on

Processing maps (0.0 sec)
Average map sizes:
   Aux shells -> MOs(i)           54.3
   Aux shells -> MOs(j)           64.0
   MOs        -> AO shells       462.6

Calculating integrals (13.7 sec, 110.278 MB)
Sorting integrals (0.4 sec, 110.232 MB)
Total time for the integral transformation: 14.1 sec
--------------------------------
LOCAL RI TRANSFORMATION (VABPAO)
--------------------------------

Number of PAOs:    1865
Basis functions:   1865 (545 shells)
Aux. functions:    4136 (990 shells)
Use SHARK:           on

Processing maps (0.0 sec)
Average map sizes:
   Aux shells -> PAOs           1828.8
   PAOs       -> AO shells       525.8

Calculating integrals (443.3 sec, 105816.935 MB)
Finished


-------------------------------------
Pair Pair Term precalculation with     
RI-(ij|mn) and (im|jn) transformation  
ON THE FLY                             
-------------------------------------

   IBatch   1 (of   7)              ... done (  580.146 sec)
   IBatch   2 (of   7)              ... done (  776.402 sec)
   IBatch   3 (of   7)              ... done (  545.460 sec)
   IBatch   4 (of   7)              ... done (  852.725 sec)
   IBatch   5 (of   7)              ... done (  859.948 sec)
   IBatch   6 (of   7)              ... done ( 1012.657 sec)
   IBatch   7 (of   7)              ... done (  490.515 sec)
Total EXT                           ...        5117.856 sec

---------------------
RI-PNO TRANSFORMATION
---------------------

Total Number of PNOs                   ... 45169
Average number of PNOs per pair        ...    39
Maximal number of PNOs per pair        ...   139
   #pairs with  1 -  5 PNOs   :    0
   #pairs with  6 - 10 PNOs   :  209
   #pairs with 11 - 15 PNOs   :  113
   #pairs with 16 - 20 PNOs   :   99
   #pairs with 21 - 25 PNOs   :   69
   #pairs with 26 - 30 PNOs   :   93
   #pairs with 31 - 35 PNOs   :   64
   #pairs with 36 - 40 PNOs   :   43
   #pairs with 41 - 45 PNOs   :   37
   #pairs with 46 - 50 PNOs   :   40
   #pairs with 51 - 55 PNOs   :   55
   #pairs with 56 - 60 PNOs   :   53
   #pairs with 61 - 65 PNOs   :   32
   #pairs with 66 - 70 PNOs   :   22
   #pairs with 71 - 75 PNOs   :    9
   #pairs with 76 - 80 PNOs   :   53
   #pairs with 81 - 85 PNOs   :   47
   #pairs with 86 - 90 PNOs   :   32
   #pairs with 91 - 95 PNOs   :   40
   #pairs with > 96 PNOs      :   40

Generation of (ij|ab)[P] integrals            ... on
Generation of (ia|bc)[P],(ja|bc)[P] integrals ... on
Storage of 3 and 4 external integrals         ... on
Generation of ALL (ka|bc)[P] integrals        ... on
Keep RI integrals in memory                   ... off

Ibatch:  1 (of  1)
Starting 2-4 index PNO integral generation ... done

Timings:
Total PNO integral transformation time     ...       2729.324 sec
Size of the 3-external file                ...      1580 MB
Size of the 4-external file                ...     16476 MB
Size of the IKJL file                      ...         0 MB
Size of the all 3-external file            ...     44727 MB
Size of the 1-external file                ...        59 MB

Making pair/pair overlap matrices          ... done (  609.170 sec)
Size of the pair overlap file              ... 10338 MB
Redoing the guess amplitudes               ... done (    0.255 sec)

-------------------------
FINAL STARTUP INFORMATION
-------------------------

E(0)                                       ...  -1154.716212187
E(L-MP2)                                   ...     -4.649383933
E(L-MP2) including corrections             ...     -4.649967966
Initial E(tot)                             ...  -1159.366180152
<T|T>                                      ...      1.144239798
Number of pairs included                   ... 1150
Total number of pairs                      ... 2080

------------------------------------------------
                  RHF COUPLED CLUSTER ITERATIONS
------------------------------------------------

Number of PNO amplitudes to be optimized   ...      2744461
Number of non-PNO amplitudes               ...   3635476600
Untruncated number of regular amplitudes   ...   6575470720

Iter       E(tot)           E(Corr)          Delta-E          Residual     Time
  0  -1159.185671198     -4.456807667      0.192576266      0.019234059  300.34
                           *** Turning on DIIS ***
  1  -1159.242995853     -4.514132323     -0.057324655      0.012470241  264.46
  2  -1159.342976012     -4.614112481     -0.099980158      0.007084752  269.57
  3  -1159.366687270     -4.637823740     -0.023711259      0.005096216  269.61
  4  -1159.373866761     -4.645003231     -0.007179491      0.002960522  271.71
  5  -1159.376716518     -4.647852988     -0.002849757      0.001461979  269.53
  6  -1159.377435366     -4.648571835     -0.000718847      0.000901937  269.44
  7  -1159.377699096     -4.648835565     -0.000263730      0.000616952  272.90
  8  -1159.377779321     -4.648915790     -0.000080225      0.000398209  301.37
  9  -1159.377760137     -4.648896606      0.000019184      0.000231300  298.45
 10  -1159.377788633     -4.648925103     -0.000028497      0.000112054  322.21
 11  -1159.377788223     -4.648924692      0.000000411      0.000051521  338.56
 12  -1159.377787861     -4.648924330      0.000000362      0.000021612  276.29
 13  -1159.377782620     -4.648919090      0.000005240      0.000012447  291.33
 14  -1159.377778803     -4.648915273      0.000003817      0.000009446  282.69
               --- The Coupled-Cluster iterations have converged ---

----------------------
COUPLED CLUSTER ENERGY
----------------------

E(0)                                       ...  -1154.716212187
E(CORR)(strong-pairs)                      ...     -4.648915273
E(CORR)(weak-pairs)                        ...     -0.012651344
E(CORR)(corrected)                         ...     -4.661566617
E(TOT)                                     ...  -1159.377778803
Singles Norm <S|S>**1/2                    ...      0.169811998  
T1 diagnostic                              ...      0.015009402  

------------------
LARGEST AMPLITUDES
------------------
  65-> 87  65-> 87       0.053425
  65-> 87  -1-> -1       0.047918
  56-> 88  56-> 88       0.047423
  44-> 87  44-> 87       0.042033
  53-> 89  53-> 89       0.038013
  80-> 87  80-> 87       0.037082
  59-> 87  59-> 87       0.036625
  57-> 88  57-> 88       0.036148
  58-> 90  58-> 90       0.035999
  74-> 87  74-> 87       0.035511
  60-> 87  60-> 87       0.034759
  57-> 88  56-> 88       0.034189
  70-> 87  70-> 87       0.033692
  48-> 87  48-> 87       0.033545
  73-> 87  73-> 87       0.033058
  52-> 87  52-> 87       0.032180


-------------------------------------------
DLPNO BASED TRIPLES CORRECTION
-------------------------------------------

Singles multiplier          ...  1.000000
TCutTNO                     ... 1.000e-09
TCutMP2Pairs                ... 1.000e-06
TCutDOStrong                ... 1.000e-02
TCutMKNStrong               ... 1.000e-02
TCutDOWeak                  ... 2.000e-02
TCutMKNWeak                 ... 1.000e-01

Fragment selection                          .... not used
Fock matrix occ-virt block is zero --> Setting DT_in_Triples to false.
Number of Triples that are to be computed   ...     19988

 . . . . . . . . .
10% done  
20% done               (   8269.851 sec)
 . . . . . . . . .
30% done  
40% done               (   9357.150 sec)
 . . . . . . . . .
50% done  
60% done  
70% done  
80% done  
90% done               (  16143.000 sec)
 . . . . . . . . .             (    534.110 sec)
Triples timings:
Total time for T0               ... 38022.772 sec
Total time for Iterative (T)    ...     0.000 sec
Total time of overall (T)       ... 39297.011 sec

Triples List generation         ...     0.000 sec
TNO generation                  ...  3717.944 sec
Pair density generation         ...     0.162 sec
Look up tables                  ...     0.000 sec
Generating 3-index integrals    ... 28732.526 sec
  Make 4-ind.int. from 3-ind.int...   449.220 sec
  Projecting amplitudes (D + S) ...  4797.099 sec
  Downprojecting integrals      ...     0.012 sec
  Energy contr. (sum over a,b,c)...    21.369 sec
Fitting ET(->0)                 ...     0.000 sec

Everything after 3-index        ...  5571.585 sec

Timing details:
 TNO integrals                  ... 29160.534 sec
   Reading 3-index integrals    ...   601.347 sec
   Sorting integrals            ...  1709.962 sec
       Sorting integrals 1      ...     0.010 sec
       Sorting integrals 2      ...  1670.188 sec
       Sorting integrals 3      ...    12.169 sec
       Sorting integrals 4      ...     0.756 sec
       Sorting integrals 5      ...     6.510 sec
       Sorting integrals 6      ...    20.329 sec
   Calculating local VM**-1/2   ...    31.611 sec
   Orthogonal. integrals        ...    48.736 sec
   Multipl. 3-index integrals   ... 26768.879 sec
   All concerning IRIab (w/TNO) ...   334.838 sec

 Calculate W0/W1                ...   303.804 sec
 W 3-ext contribution           ...   205.169 sec
 W 3-int contribution           ...    78.306 sec
 Sorting W                      ...    17.141 sec

 V exchange contribution        ...     6.051 sec

 Timings for Triples without generation
     of 3-index integrals       ...  5571.570 sec
       0 weak pairs             ...  4263.630 sec
       1 weak pair              ...  1307.939 sec
       2 weak pairs             ...     0.000 sec
       3 weak pairs             ...     0.000 sec
  Extra time for extrapolation  ...     0.000 sec

Number of Triples   (0, 1, 2, 3 weak pairs; overall):  12151    7837       0       0  ( 19988)
Number of Atoms     (0, 1, 2, 3 weak pairs; overall):   24.6    23.5     0.0     0.0  (    43)
Number of PAOs      (0, 1, 2, 3 weak pairs; overall): 1123.2  1083.2     0.0     0.0  (  1865)
Number of AuxFcns   (0, 1, 2, 3 weak pairs; overall):  933.4   628.4     0.0     0.0  (  4136)
Number of TNOs      (0, 1, 2, 3 weak pairs         ):  111.1    59.5     0.0     0.0
Aver. Number of NTNO, Atoms, PAOs, AuxFcns / Triples:  19988    90.9    24.2  1107.5   813.8

Triples Correction (T)                     ...     -0.219241933
Final correlation energy                   ...     -4.880808550
E(CCSD)                                    ...  -1159.377778803
E(CCSD(T))                                 ...  -1159.597020736



--------------------------------------------------------------------------------
                                    TIMINGS
--------------------------------------------------------------------------------


Total execution time                   ...    55612.561 sec

Localization of occupied MO's          ...       20.081 sec (  0.0%)
Fock Matrix Formation                  ...      336.836 sec (  0.6%)
Global overlap, Fock, MKN matrices     ...       15.207 sec (  0.0%)
Differential overlap integrals         ...        4.495 sec (  0.0%)
Organizing maps                        ...        0.599 sec (  0.0%)
RI 3-index integral generations        ...      514.666 sec (  0.9%)
RI-PNO integral transformation         ...     8658.567 sec ( 15.6%)
Initial Guess                          ...     2462.790 sec (  4.4%)
DIIS Solver                            ...       37.530 sec (  0.1%)
State Vector Update                    ...        0.374 sec (  0.0%)
Sigma-vector construction              ...     4280.430 sec (  7.7%)
  <0|H|D>                              ...        0.001 sec (  0.0% of sigma)
  <D|H|D>(0-ext)                       ...      241.720 sec (  5.6% of sigma)
  <D|H|D>(2-ext Fock)                  ...        0.430 sec (  0.0% of sigma)
  <D|H|D>(2-ext)                       ...     1740.335 sec ( 40.7% of sigma)
  <D|H|D>(4-ext)                       ...      168.815 sec (  3.9% of sigma)
  <D|H|D>(4-ext-corr)                  ...      884.312 sec ( 20.7% of sigma)
  CCSD doubles correction              ...        8.065 sec (  0.2% of sigma)
  <S|H|S>                              ...       12.631 sec (  0.3% of sigma)
  <S|H|D>(1-ext)                       ...        8.238 sec (  0.2% of sigma)
  <D|H|S>(1-ext)                       ...        0.467 sec (  0.0% of sigma)
  <S|H|D>(3-ext)                       ...        7.813 sec (  0.2% of sigma)
  CCSD singles correction              ...        0.001 sec (  0.0% of sigma)
  Fock-dressing                        ...      745.404 sec ( 17.4% of sigma)
  Singles amplitudes                   ...      100.577 sec (  2.3% of sigma)
  (ik|jl)-dressing                     ...       98.889 sec (  2.3% of sigma)
  (ij|ab),(ia|jb)-dressing             ...       93.570 sec (  2.2% of sigma)
  Pair energies                        ...        0.057 sec (  0.0% of sigma)
Total Time for computing (T)           ...    39297.165 sec ( 70.7% of ALL)


Maximum memory used throughout the entire MDCI-calculation: 10132.9 MB

-------------------------   --------------------
FINAL SINGLE POINT ENERGY     -1159.597020736181
-------------------------   --------------------


                            ***************************************
                            *     ORCA property calculations      *
                            ***************************************


  WARNING: The energy has been calculated at the MDCI level but the densities
           used in the property calculations are still SCF densities
           MDCI response densities have not been calculated 
           use %mdci Density linearized end
           or  %mdci Density unrelaxed end
           or  %mdci Density orbopt end

                                    ---------------------
                                    Active property flags
                                    ---------------------
   (+) Dipole Moment


------------------------------------------------------------------------------
                       ORCA ELECTRIC PROPERTIES CALCULATION
------------------------------------------------------------------------------

Dipole Moment Calculation                       ... on
Quadrupole Moment Calculation                   ... off
Polarizability Calculation                      ... off
GBWName                                         ... input.gbw
Electron density                                ... input.scfp
The origin for moment calculation is the CENTER OF MASS  = (19.806988, 18.614959 18.490688)

-------------
DIPOLE MOMENT
-------------
                                X             Y             Z
Electronic contribution:     24.68562      -9.50669      -0.40807
Nuclear contribution   :    -35.04708      12.19760       5.97409
                        -----------------------------------------
Total Dipole Moment    :    -10.36146       2.69091       5.56602
                        -----------------------------------------
Magnitude (a.u.)       :     12.06572
Magnitude (Debye)      :     30.66862



--------------------
Rotational spectrum 
--------------------
 
Rotational constants in cm-1:     0.015051     0.004185     0.004101 
Rotational constants in MHz :   451.222300   125.463480   122.956163 

 Dipole components along the rotational axes: 
x,y,z [a.u.] :   -10.974335     4.390563    -2.422494 
x,y,z [Debye]:   -27.894544    11.159924    -6.157489 

 

Timings for individual modules:

Sum of individual times         ...    58327.088 sec (= 972.118 min)
GTO integral calculation        ...        7.477 sec (=   0.125 min)   0.0 %
SCF iterations                  ...     2702.455 sec (=  45.041 min)   4.6 %
MDCI module                     ...    55617.156 sec (= 926.953 min)  95.4 %
                             ****ORCA TERMINATED NORMALLY****
TOTAL RUN TIME: 0 days 16 hours 12 minutes 11 seconds 879 msec
