Loading orca/5.0.3
  Loading requirement: gcc-runtime/11.3.1-gcc-11.3.1-jw6fhud
    numactl/2.0.14-gcc-11.3.1-tqvsbcd openssh/8.7p1-gcc-11.3.1-ddo4kmk
    libiconv/1.17-gcc-11.3.1-h3jdn2x xz/5.4.1-gcc-11.3.1-y32p7p3
    zlib/1.2.13-gcc-11.3.1-dwcx77k libxml2/2.10.3-gcc-11.3.1-m4mk5ab
    cuda/11.8.0-gcc-11.3.1-i5witig libpciaccess/0.17-gcc-11.3.1-qksiqer
    ncurses/6.4-gcc-11.3.1-afnu276 hwloc/2.9.1-gcc-11.3.1-qedjm66
    openssl/3.1.2-gcc-11.3.1-mgoa6lt libevent/2.1.12-gcc-11.3.1-bpr3m74
    pmix/4.2.2-gcc-11.3.1-du4y5e7 slurm/22.05.6-gcc-11.3.1-atym2np
    libnl/3.3.0-gcc-11.3.1-gh3muw7 rdma-core/41.0-gcc-11.3.1-isp54jw
    ucx/1.14.1-gcc-11.3.1-o3wj4kz openmpi/4.1.2-gcc-11.3.1-fs7u3kb

                                 *****************
                                 * O   R   C   A *
                                 *****************

                                            #,                                       
                                            ###                                      
                                            ####                                     
                                            #####                                    
                                            ######                                   
                                           ########,                                 
                                     ,,################,,,,,                         
                               ,,#################################,,                 
                          ,,##########################################,,             
                       ,#########################################, ''#####,          
                    ,#############################################,,   '####,        
                  ,##################################################,,,,####,       
                ,###########''''           ''''###############################       
              ,#####''   ,,,,##########,,,,          '''####'''          '####       
            ,##' ,,,,###########################,,,                        '##       
           ' ,,###''''                  '''############,,,                           
         ,,##''                                '''############,,,,        ,,,,,,###''
      ,#''                                            '''#######################'''  
     '                                                          ''''####''''         
             ,#######,   #######,   ,#######,      ##                                
            ,#'     '#,  ##    ##  ,#'     '#,    #''#        ######   ,####,        
            ##       ##  ##   ,#'  ##            #'  '#       #        #'  '#        
            ##       ##  #######   ##           ,######,      #####,   #    #        
            '#,     ,#'  ##    ##  '#,     ,#' ,#      #,         ##   #,  ,#        
             '#######'   ##     ##  '#######'  #'      '#     #####' # '####'        



                  #######################################################
                  #                        -***-                        #
                  #          Department of theory and spectroscopy      #
                  #    Directorship and core code : Frank Neese         #
                  #        Max Planck Institute fuer Kohlenforschung    #
                  #                Kaiser Wilhelm Platz 1               #
                  #                 D-45470 Muelheim/Ruhr               #
                  #                      Germany                        #
                  #                                                     #
                  #                  All rights reserved                #
                  #                        -***-                        #
                  #######################################################


                         Program Version 5.0.3 -  RELEASE  -


 With contributions from (in alphabetic order):
   Daniel Aravena         : Magnetic Suceptibility
   Michael Atanasov       : Ab Initio Ligand Field Theory (pilot matlab implementation)
   Alexander A. Auer      : GIAO ZORA, VPT2 properties, NMR spectrum
   Ute Becker             : Parallelization
   Giovanni Bistoni       : ED, misc. LED, open-shell LED, HFLD
   Martin Brehm           : Molecular dynamics
   Dmytro Bykov           : SCF Hessian
   Vijay G. Chilkuri      : MRCI spin determinant printing, contributions to CSF-ICE
   Dipayan Datta          : RHF DLPNO-CCSD density
   Achintya Kumar Dutta   : EOM-CC, STEOM-CC
   Dmitry Ganyushin       : Spin-Orbit,Spin-Spin,Magnetic field MRCI
   Miquel Garcia          : C-PCM and meta-GGA Hessian, CC/C-PCM, Gaussian charge scheme
   Yang Guo               : DLPNO-NEVPT2, F12-NEVPT2, CIM, IAO-localization
   Andreas Hansen         : Spin unrestricted coupled pair/coupled cluster methods
   Benjamin Helmich-Paris : MC-RPA, TRAH-SCF, COSX integrals
   Lee Huntington         : MR-EOM, pCC
   Robert Izsak           : Overlap fitted RIJCOSX, COSX-SCS-MP3, EOM
   Marcus Kettner         : VPT2
   Christian Kollmar      : KDIIS, OOCD, Brueckner-CCSD(T), CCSD density, CASPT2, CASPT2-K
   Simone Kossmann        : Meta GGA functionals, TD-DFT gradient, OOMP2, MP2 Hessian
   Martin Krupicka        : Initial AUTO-CI
   Lucas Lang             : DCDCAS
   Marvin Lechner         : AUTO-CI (C++ implementation), FIC-MRCC
   Dagmar Lenk            : GEPOL surface, SMD
   Dimitrios Liakos       : Extrapolation schemes; Compound Job, initial MDCI parallelization
   Dimitrios Manganas     : Further ROCIS development; embedding schemes
   Dimitrios Pantazis     : SARC Basis sets
   Anastasios Papadopoulos: AUTO-CI, single reference methods and gradients
   Taras Petrenko         : DFT Hessian,TD-DFT gradient, ASA, ECA, R-Raman, ABS, FL, XAS/XES, NRVS
   Peter Pinski           : DLPNO-MP2, DLPNO-MP2 Gradient
   Christoph Reimann      : Effective Core Potentials
   Marius Retegan         : Local ZFS, SOC
   Christoph Riplinger    : Optimizer, TS searches, QM/MM, DLPNO-CCSD(T), (RO)-DLPNO pert. Triples
   Tobias Risthaus        : Range-separated hybrids, TD-DFT gradient, RPA, STAB
   Michael Roemelt        : Original ROCIS implementation
   Masaaki Saitow         : Open-shell DLPNO-CCSD energy and density
   Barbara Sandhoefer     : DKH picture change effects
   Avijit Sen             : IP-ROCIS
   Kantharuban Sivalingam : CASSCF convergence, NEVPT2, FIC-MRCI
   Bernardo de Souza      : ESD, SOC TD-DFT
   Georgi Stoychev        : AutoAux, RI-MP2 NMR, DLPNO-MP2 response
   Willem Van den Heuvel  : Paramagnetic NMR
   Boris Wezisla          : Elementary symmetry handling
   Frank Wennmohs         : Technical directorship


 We gratefully acknowledge several colleagues who have allowed us to
 interface, adapt or use parts of their codes:
   Stefan Grimme, W. Hujo, H. Kruse, P. Pracht,  : VdW corrections, initial TS optimization,
                  C. Bannwarth, S. Ehlert          DFT functionals, gCP, sTDA/sTD-DF
   Ed Valeev, F. Pavosevic, A. Kumar             : LibInt (2-el integral package), F12 methods
   Garnet Chan, S. Sharma, J. Yang, R. Olivares  : DMRG
   Ulf Ekstrom                                   : XCFun DFT Library
   Mihaly Kallay                                 : mrcc  (arbitrary order and MRCC methods)
   Jiri Pittner, Ondrej Demel                    : Mk-CCSD
   Frank Weinhold                                : gennbo (NPA and NBO analysis)
   Christopher J. Cramer and Donald G. Truhlar   : smd solvation model
   Lars Goerigk                                  : TD-DFT with DH, B97 family of functionals
   V. Asgeirsson, H. Jonsson                     : NEB implementation
   FAccTs GmbH                                   : IRC, NEB, NEB-TS, DLPNO-Multilevel, CI-OPT
                                                   MM, QMMM, 2- and 3-layer-ONIOM, Crystal-QMMM,
                                                   LR-CPCM, SF, NACMEs, symmetry and pop. for TD-DFT,
                                                   nearIR, NL-DFT gradient (VV10), updates on ESD,
                                                   ML-optimized integration grids
   S Lehtola, MJT Oliveira, MAL Marques          : LibXC Library
   Liviu Ungur et al                             : ANISO software


 Your calculation uses the libint2 library for the computation of 2-el integrals
 For citations please refer to: http://libint.valeyev.net

 Your ORCA version has been built with support for libXC version: 5.1.0
 For citations please refer to: https://tddft.org/programs/libxc/

 This ORCA versions uses:
   CBLAS   interface :  Fast vector & matrix operations
   LAPACKE interface :  Fast linear algebra routines
   SCALAPACK package :  Parallel linear algebra routines
   Shared memory     :  Shared parallel matrices
   BLAS/LAPACK       :  OpenBLAS 0.3.15  USE64BITINT DYNAMIC_ARCH NO_AFFINITY Prescott SINGLE_THREADED
        Core in use  :  Prescott
   Copyright (c) 2011-2014, The OpenBLAS Project


================================================================================

----- Orbital basis set information -----
Your calculation utilizes the basis: cc-pVTZ 
       H, B-Ne : Obtained from the ccRepo (grant-hill.group.shef.ac.uk/ccrepo) Feb. 2017
                 T. H. Dunning, Jr., J. Chem. Phys. 90, 1007 (1989)
            He : Obtained from the ccRepo (grant-hill.group.shef.ac.uk/ccrepo) Feb. 2017
                 D. E. Woon, T. H. Dunning, Jr., J. Chem. Phys. 100, 2975 (1994)
  Li-Be, Na-Mg : Obtained from the ccRepo (grant-hill.group.shef.ac.uk/ccrepo) Feb. 2017
                 B. P. Prascher, D. E. Woon, K. A. Peterson, T. H. Dunning, Jr., A. K. Wilson, Theor. Chem. Acc. 128, 69 (2011)
         Al-Ar : Obtained from the ccRepo (grant-hill.group.shef.ac.uk/ccrepo) Feb. 2017
                 D. E. Woon, T. H. Dunning, Jr., J. Chem. Phys. 98, 1358 (1993)
            Ca : Obtained from the Peterson Research Group Website (tyr0.chem.wsu.edu/~kipeters) Feb. 2017
                 J. Koput, K. A. Peterson, J. Phys. Chem. 106, 9595 (2002)
         Sc-Zn : Obtained from the ccRepo (grant-hill.group.shef.ac.uk/ccrepo) Feb. 2017
                 N. B. Balabanov, K. A. Peterson, J. Chem. Phys. 123, 064107 (2005)
                 N. B. Balabanov, K. A. Peterson, J. Chem. Phys. 125, 074110 (2006)
         Ga-Kr : Obtained from the ccRepo (grant-hill.group.shef.ac.uk/ccrepo) Feb. 2017
                 A. K. Wilson, D. E. Woon, K. A. Peterson, T. H. Dunning, Jr., J. Chem. Phys. 110, 7667 (1999)
             Y : Obtained from the ccRepo (grant-hill.group.shef.ac.uk/ccrepo) Feb. 2017
                 K. A. Peterson, D. Figgen, M. Dolg, H. Stoll, J. Chem. Phys. 126, 124101 (2007)
        Ag, Au : Obtained from the Peterson Research Group Website (tyr0.chem.wsu.edu/~kipeters) Feb. 2017
                 K. A. Peterson, C. Puzzarini, Theor. Chem. Acc. 114, 283 (2005)

----- AuxC basis set information -----
Your calculation utilizes the auxiliary basis: cc-pVTZ/C 
  Obtained from the EMSL Basis Set Exchange (bse.pnl.gov) Feb. 2017
  H-He, B-F, Al-Ar, Ga-Kr : F. Weigend, A. Kohn, C. Hattig, J. Chem. Phys. 116, 3175 (2002)
             Li-Be, Na-Mg : C. Haettig, Phys. Chem. Chem. Phys. 7, 59 (2005)
                       Ne : C. Haettig, Phys. Chem. Chem. Phys. 7, 59 (2005)
                            F. Weigend, A. Kohn, C. Hattig, J. Chem. Phys. 116, 3175 (2002)
                    Sc-Zn : J. G. Hill, J. A. Platts, J. Chem. Phys. 128, 044104 (2008)

================================================================================
                                        WARNINGS
                       Please study these warnings very carefully!
================================================================================


WARNING: Post HF methods need fully converged wavefunctions
  ===> : Setting SCFConvForced true
         You can overwrite this default with %scf ConvForced false 


WARNING: MDCI localization with Augmented Hessian Foster-Boys
  ===> : Switching off randomization!

INFO   : the flag for use of the SHARK integral package has been found!

================================================================================
                                       INPUT FILE
================================================================================
NAME = input
|  1> ! DLPNO-CCSD(T) cc-pVTZ cc-pVTZ/C TIGHTPNO TIGHTSCF
|  2> %maxcore 10000
|  3> %pal
|  4> nprocs 16
|  5> end
|  6> *xyz -1 1
|  7> H 4.850781301215 12.934605292460 7.688224759549
|  8> C 5.350900000000 11.995300000000 7.872580000000
|  9> H 5.814320000000 11.687100000000 6.929940000000
| 10> H 4.616390000000 11.222300000000 8.114120000000
| 11> C 6.405250000000 11.957400000000 8.956310000000
| 12> H 5.933650000000 12.038600000000 9.938440000000
| 13> H 7.078470000000 12.808000000000 8.849450000000
| 14> C 7.178230000000 10.642400000000 8.877650000000
| 15> H 7.954460000000 10.700600000000 8.118730000000
| 16> H 6.505990000000 9.841780000000 8.576030000000
| 17> N 7.760130000000 10.197100000000 10.133200000000
| 18> H 7.540780000000 9.261380000000 10.474700000000
| 19> C 8.667680000000 10.843800000000 10.844500000000
| 20> N 9.155230000000 12.024000000000 10.424400000000
| 21> H 9.391740000000 12.000400000000 9.432430000000
| 22> H 9.968990000000 12.312300000000 10.944000000000
| 23> N 9.058580000000 10.320400000000 11.995300000000
| 24> H 9.699290000000 10.816500000000 12.602800000000
| 25> H 8.725680000000 9.394070000000 12.232700000000
| 26> C 13.434400000000 9.659130000000 8.968930000000
| 27> H 13.973900000000 9.823810000000 9.899320000000
| 28> H 14.080300000000 9.966040000000 8.158320000000
| 29> C 12.213200000000 10.517300000000 9.011080000000
| 30> C 11.477100000000 10.841200000000 7.684990000000
| 31> O 12.123900000000 10.746800000000 6.637850000000
| 32> O 10.267600000000 11.169400000000 7.812850000000
| 33> O 11.790500000000 10.937100000000 10.060200000000
| 34> C 11.115600000000 7.770220000000 10.397300000000
| 35> H 10.685400000000 7.687770000000 11.383200000000
| 36> C 12.419300000000 7.883220000000 10.233700000000
| 37> H 13.097400000000 7.939930000000 11.064300000000
| 38> C 13.071100000000 8.141650000000 8.920430000000
| 39> C 12.145900000000 7.755770000000 7.797810000000
| 40> H 12.590200000000 7.619840000000 6.822340000000
| 41> C 10.845100000000 7.556230000000 7.967210000000
| 42> H 10.225700000000 7.269060000000 7.124890000000
| 43> C 10.147900000000 7.808810000000 9.263810000000
| 44> H 9.727150000000 8.819730000000 9.203970000000
| 45> O 9.076930000000 6.898890000000 9.460740000000
| 46> H 8.594260000000 7.163270000000 10.286900000000
| 47> C 14.459700000000 7.449390000000 8.788380000000
| 48> O 15.081500000000 7.187770000000 9.836640000000
| 49> O 14.892700000000 7.304190000000 7.620260000000
| 50> *
| 51> 
| 52>                          ****END OF INPUT****
================================================================================

                       ****************************
                       * Single Point Calculation *
                       ****************************

---------------------------------
CARTESIAN COORDINATES (ANGSTROEM)
---------------------------------
  H      4.850781   12.934605    7.688225
  C      5.350900   11.995300    7.872580
  H      5.814320   11.687100    6.929940
  H      4.616390   11.222300    8.114120
  C      6.405250   11.957400    8.956310
  H      5.933650   12.038600    9.938440
  H      7.078470   12.808000    8.849450
  C      7.178230   10.642400    8.877650
  H      7.954460   10.700600    8.118730
  H      6.505990    9.841780    8.576030
  N      7.760130   10.197100   10.133200
  H      7.540780    9.261380   10.474700
  C      8.667680   10.843800   10.844500
  N      9.155230   12.024000   10.424400
  H      9.391740   12.000400    9.432430
  H      9.968990   12.312300   10.944000
  N      9.058580   10.320400   11.995300
  H      9.699290   10.816500   12.602800
  H      8.725680    9.394070   12.232700
  C     13.434400    9.659130    8.968930
  H     13.973900    9.823810    9.899320
  H     14.080300    9.966040    8.158320
  C     12.213200   10.517300    9.011080
  C     11.477100   10.841200    7.684990
  O     12.123900   10.746800    6.637850
  O     10.267600   11.169400    7.812850
  O     11.790500   10.937100   10.060200
  C     11.115600    7.770220   10.397300
  H     10.685400    7.687770   11.383200
  C     12.419300    7.883220   10.233700
  H     13.097400    7.939930   11.064300
  C     13.071100    8.141650    8.920430
  C     12.145900    7.755770    7.797810
  H     12.590200    7.619840    6.822340
  C     10.845100    7.556230    7.967210
  H     10.225700    7.269060    7.124890
  C     10.147900    7.808810    9.263810
  H      9.727150    8.819730    9.203970
  O      9.076930    6.898890    9.460740
  H      8.594260    7.163270   10.286900
  C     14.459700    7.449390    8.788380
  O     15.081500    7.187770    9.836640
  O     14.892700    7.304190    7.620260

----------------------------
CARTESIAN COORDINATES (A.U.)
----------------------------
  NO LB      ZA    FRAG     MASS         X           Y           Z
   0 H     1.0000    0     1.008    9.166648   24.442862   14.528639
   1 C     6.0000    0    12.011   10.111736   22.667832   14.877020
   2 H     1.0000    0     1.008   10.987472   22.085418   13.095689
   3 H     1.0000    0     1.008    8.723713   21.207074   15.333465
   4 C     6.0000    0    12.011   12.104168   22.596211   16.924973
   5 H     1.0000    0     1.008   11.212973   22.749657   18.780930
   6 H     1.0000    0     1.008   13.376370   24.203612   16.723037
   7 C     6.0000    0    12.011   13.564889   20.111221   16.776327
   8 H     1.0000    0     1.008   15.031751   20.221203   15.342176
   9 H     1.0000    0     1.008   12.294539   18.598269   16.206348
  10 N     7.0000    0    14.007   14.664520   19.269726   19.148973
  11 H     1.0000    0     1.008   14.250009   17.501472   19.794314
  12 C     6.0000    0    12.011   16.379541   20.491812   20.493135
  13 N     7.0000    0    14.007   17.300877   22.722067   19.699261
  14 H     1.0000    0     1.008   17.747817   22.677469   17.824709
  15 H     1.0000    0     1.008   18.838661   23.266875   20.681163
  16 N     7.0000    0    14.007   17.118235   19.502730   22.667832
  17 H     1.0000    0     1.008   18.329002   20.440223   23.815841
  18 H     1.0000    0     1.008   16.489146   17.752220   23.116453
  19 C     6.0000    0    12.011   25.387337   18.253110   16.948821
  20 H     1.0000    0     1.008   26.406844   18.564310   18.707004
  21 H     1.0000    0     1.008   26.607911   18.833086   15.416991
  22 C     6.0000    0    12.011   23.079603   19.874817   17.028473
  23 C     6.0000    0    12.011   21.688576   20.486899   14.522526
  24 O     8.0000    0    15.999   22.910851   20.308509   12.543719
  25 O     8.0000    0    15.999   19.402952   21.107107   14.764147
  26 O     8.0000    0    15.999   22.280816   20.668124   19.011023
  27 C     6.0000    0    12.011   21.005440   14.683588   19.648050
  28 H     1.0000    0     1.008   20.192480   14.527780   21.511131
  29 C     6.0000    0    12.011   23.469076   14.897127   19.338890
  30 H     1.0000    0     1.008   24.750499   15.004293   20.908497
  31 C     6.0000    0    12.011   24.700799   15.385489   16.857170
  32 C     6.0000    0    12.011   22.952425   14.656281   14.735725
  33 H     1.0000    0     1.008   23.792030   14.399411   12.892354
  34 C     6.0000    0    12.011   20.494269   14.279205   15.055845
  35 H     1.0000    0     1.008   19.323773   13.736533   13.464091
  36 C     6.0000    0    12.011   19.176752   14.756512   17.506064
  37 H     1.0000    0     1.008   18.381650   16.666874   17.392983
  38 O     8.0000    0    15.999   17.152912   13.037013   17.878208
  39 H     1.0000    0     1.008   16.240798   13.536619   19.439424
  40 C     6.0000    0    12.011   27.324873   14.077307   16.607631
  41 O     8.0000    0    15.999   28.499905   13.582917   18.588556
  42 O     8.0000    0    15.999   28.143124   13.802919   14.400204

--------------------------------
INTERNAL COORDINATES (ANGSTROEM)
--------------------------------
 H      0   0   0     0.000000000000     0.00000000     0.00000000
 C      1   0   0     1.080000000000     0.00000000     0.00000000
 H      2   1   0     1.094675982197   107.09234790     0.00000000
 H      2   1   3     1.093332297017   109.96969035   245.26011713
 C      2   1   3     1.512468527078   117.83428142   122.33374507
 H      5   2   1     1.092510566036   109.95959528    71.01022916
 H      5   2   1     1.090029627120   109.92227273   313.14334272
 C      5   2   1     1.527386812828   109.72244006   191.12555897
 H      8   5   2     1.087142961758   110.56112028    82.02242695
 H      8   5   2     1.088059569325   109.57913274   324.71477230
 N      8   5   2     1.453721260249   114.94949145   206.59016792
 H     11   8   5     1.019955190633   118.95426644   125.39857380
 C     11   8   5     1.322049765516   126.13058861   298.56547040
 N     13  11   8     1.344269709731   120.68356773   359.30235845
 H     14  13  11     1.020048244447   111.57324469   314.74610085
 H     14  13  11     1.007624130120   112.51669245   192.23986272
 N     13  11   8     1.323287954302   118.50283063   177.55001436
 H     17  13  11     1.012758986186   120.98335824   184.59640243
 H     17  13  11     1.012555400410   117.94501569     6.90932856
 C     15  14  13     4.694622172071   107.89132858   283.56899496
 H     20  15  14     1.088028172659   105.49065393   331.00931038
 H     20  15  14     1.080957506195   116.55045468   211.74703348
 C     20  15  14     1.493171728704     6.44023205   225.44039461
 C     23  20  22     1.550893003434   118.95175685    44.56926168
 O     24  23  20     1.234408271035   117.43012734   337.86894048
 O     24  23  20     1.259743493573   115.04473343   157.59556680
 O     23  20  22     1.206465956586   120.73545433   223.43211587
 C     27  23  20     3.255496176376    79.87422635   290.53126196
 H     28  27  23     1.078827536032   104.57472382   177.79205583
 C     28  27  23     1.318775056634    72.47391774    59.43475224
 H     30  28  27     1.073746708540   122.19961968    94.14101633
 C     30  28  27     1.488726770700   123.85734824   283.37667444
 C     32  30  28     1.505049527026   110.14162230   339.23164244
 H     33  32  30     1.080472663143   116.92904293   197.41736963
 C     33  32  30     1.326873472340   123.09162969    16.03724014
 H     35  33  32     1.084262860795   120.04547243   180.65034437
 C     28  27  23     1.490882979378    91.75674054   295.22361102
 H     37  28  27     1.096617816060   108.32376896   331.32860099
 O     37  28  27     1.419053407099   111.57744827   212.56901317
 H     39  37  28     0.992676915668   108.16069668    61.25923283
 C     32  30  28     1.557199752793   112.83351600   213.56079849
 O     41  32  30     1.246567002612   117.82635012   335.38418705
 O     41  32  30     1.254223414867   115.99536073   160.85028979

---------------------------
INTERNAL COORDINATES (A.U.)
---------------------------
 H      0   0   0     0.000000000000     0.00000000     0.00000000
 C      1   0   0     2.040904224635     0.00000000     0.00000000
 H      2   1   0     2.068637811734   107.09234790     0.00000000
 H      2   1   3     2.066098614733   109.96969035   245.26011713
 C      2   1   3     2.858151302352   117.83428142   122.33374507
 H      5   2   1     2.064545768223   109.95959528    71.01022916
 H      5   2   1     2.059857473118   109.92227273   313.14334272
 C      5   2   1     2.886342776807   109.72244006   191.12555897
 H      8   5   2     2.054402466143   110.56112028    82.02242695
 H      8   5   2     2.056134603417   109.57913274   324.71477230
 N      8   5   2     2.747135056930   114.94949145   206.59016792
 H     11   8   5     1.927435979169   118.95426644   125.39857380
 C     11   8   5     2.498311992239   126.13058861   298.56547040
 N     13  11   8     2.540301601517   120.68356773   359.30235845
 H     14  13  11     1.927611825393   111.57324469   314.74610085
 H     14  13  11     1.904133651857   112.51669245   192.23986272
 N     13  11   8     2.500651829947   118.50283063   177.55001436
 H     17  13  11     1.913837123559   120.98335824   184.59640243
 H     17  13  11     1.913452402198   117.94501569     6.90932856
 C     15  14  13     8.871550207449   107.89132858   283.56899496
 H     20  15  14     2.056075272317   105.49065393   331.00931038
 H     20  15  14     2.042713649116   116.55045468   211.74703348
 C     20  15  14     2.821685638164     6.44023205   225.44039461
 C     23  20  22     2.930763039505   118.95175685    44.56926168
 O     24  23  20     2.332693569704   117.43012734   337.86894048
 O     24  23  20     2.380570201843   115.04473343   157.59556680
 O     23  20  22     2.279890247846   120.73545433   223.43211587
 C     27  23  20     6.151996203379    79.87422635   290.53126196
 H     28  27  23     2.038688588833   104.57472382   177.79205583
 C     28  27  23     2.492123689285    72.47391774    59.43475224
 H     30  28  27     2.029087216340   122.19961968    94.14101633
 C     30  28  27     2.813285884861   123.85734824   283.37667444
 C     32  30  28     2.844131424066   110.14162230   339.23164244
 H     33  32  30     2.041797428529   116.92904293   197.41736963
 C     33  32  30     2.507427477088   123.09162969    16.03724014
 H     35  33  32     2.048959864085   120.04547243   180.65034437
 C     28  27  23     2.817360528750    91.75674054   295.22361102
 H     37  28  27     2.072307345932   108.32376896   331.32860099
 O     37  28  27     2.681622308825   111.57744827   212.56901317
 H     39  37  28     1.875887510078   108.16069668    61.25923283
 C     32  30  28     2.942681068590   112.83351600   213.56079849
 O     41  32  30     2.355670242519   117.82635012   335.38418705
 O     41  32  30     2.370138764850   115.99536073   160.85028979

---------------------
BASIS SET INFORMATION
---------------------
There are 4 groups of distinct atoms

 Group   1 Type H   : 5s2p1d contracted to 3s2p1d pattern {311/11/1}
 Group   2 Type C   : 18s5p2d1f contracted to 4s3p2d1f pattern {8811/311/11/1}
 Group   3 Type N   : 18s5p2d1f contracted to 4s3p2d1f pattern {8811/311/11/1}
 Group   4 Type O   : 18s5p2d1f contracted to 4s3p2d1f pattern {8811/311/11/1}

Atom   0H    basis set group =>   1
Atom   1C    basis set group =>   2
Atom   2H    basis set group =>   1
Atom   3H    basis set group =>   1
Atom   4C    basis set group =>   2
Atom   5H    basis set group =>   1
Atom   6H    basis set group =>   1
Atom   7C    basis set group =>   2
Atom   8H    basis set group =>   1
Atom   9H    basis set group =>   1
Atom  10N    basis set group =>   3
Atom  11H    basis set group =>   1
Atom  12C    basis set group =>   2
Atom  13N    basis set group =>   3
Atom  14H    basis set group =>   1
Atom  15H    basis set group =>   1
Atom  16N    basis set group =>   3
Atom  17H    basis set group =>   1
Atom  18H    basis set group =>   1
Atom  19C    basis set group =>   2
Atom  20H    basis set group =>   1
Atom  21H    basis set group =>   1
Atom  22C    basis set group =>   2
Atom  23C    basis set group =>   2
Atom  24O    basis set group =>   4
Atom  25O    basis set group =>   4
Atom  26O    basis set group =>   4
Atom  27C    basis set group =>   2
Atom  28H    basis set group =>   1
Atom  29C    basis set group =>   2
Atom  30H    basis set group =>   1
Atom  31C    basis set group =>   2
Atom  32C    basis set group =>   2
Atom  33H    basis set group =>   1
Atom  34C    basis set group =>   2
Atom  35H    basis set group =>   1
Atom  36C    basis set group =>   2
Atom  37H    basis set group =>   1
Atom  38O    basis set group =>   4
Atom  39H    basis set group =>   1
Atom  40C    basis set group =>   2
Atom  41O    basis set group =>   4
Atom  42O    basis set group =>   4
---------------------------------
AUXILIARY/C BASIS SET INFORMATION
---------------------------------
There are 4 groups of distinct atoms

 Group   1 Type H   : 4s3p2d1f contracted to 4s3p2d1f pattern {1111/111/11/1}
 Group   2 Type C   : 8s6p5d3f1g contracted to 8s6p5d3f1g pattern {11111111/111111/11111/111/1}
 Group   3 Type N   : 8s6p5d3f1g contracted to 8s6p5d3f1g pattern {11111111/111111/11111/111/1}
 Group   4 Type O   : 8s6p5d3f1g contracted to 8s6p5d3f1g pattern {11111111/111111/11111/111/1}

Atom   0H    basis set group =>   1
Atom   1C    basis set group =>   2
Atom   2H    basis set group =>   1
Atom   3H    basis set group =>   1
Atom   4C    basis set group =>   2
Atom   5H    basis set group =>   1
Atom   6H    basis set group =>   1
Atom   7C    basis set group =>   2
Atom   8H    basis set group =>   1
Atom   9H    basis set group =>   1
Atom  10N    basis set group =>   3
Atom  11H    basis set group =>   1
Atom  12C    basis set group =>   2
Atom  13N    basis set group =>   3
Atom  14H    basis set group =>   1
Atom  15H    basis set group =>   1
Atom  16N    basis set group =>   3
Atom  17H    basis set group =>   1
Atom  18H    basis set group =>   1
Atom  19C    basis set group =>   2
Atom  20H    basis set group =>   1
Atom  21H    basis set group =>   1
Atom  22C    basis set group =>   2
Atom  23C    basis set group =>   2
Atom  24O    basis set group =>   4
Atom  25O    basis set group =>   4
Atom  26O    basis set group =>   4
Atom  27C    basis set group =>   2
Atom  28H    basis set group =>   1
Atom  29C    basis set group =>   2
Atom  30H    basis set group =>   1
Atom  31C    basis set group =>   2
Atom  32C    basis set group =>   2
Atom  33H    basis set group =>   1
Atom  34C    basis set group =>   2
Atom  35H    basis set group =>   1
Atom  36C    basis set group =>   2
Atom  37H    basis set group =>   1
Atom  38O    basis set group =>   4
Atom  39H    basis set group =>   1
Atom  40C    basis set group =>   2
Atom  41O    basis set group =>   4
Atom  42O    basis set group =>   4


           ************************************************************
           *        Program running with 16 parallel MPI-processes    *
           *              working on a common directory               *
           ************************************************************
------------------------------------------------------------------------------
                           ORCA GTO INTEGRAL CALCULATION
------------------------------------------------------------------------------
------------------------------------------------------------------------------
                   ___                                                        
                  /   \      - P O W E R E D   B Y -                         
                 /     \                                                     
                 |  |  |   _    _      __       _____    __    __             
                 |  |  |  | |  | |    /  \     |  _  \  |  |  /  |          
                  \  \/   | |  | |   /    \    | | | |  |  | /  /          
                 / \  \   | |__| |  /  /\  \   | |_| |  |  |/  /          
                |  |  |   |  __  | /  /__\  \  |    /   |      \           
                |  |  |   | |  | | |   __   |  |    \   |  |\   \          
                \     /   | |  | | |  |  |  |  | |\  \  |  | \   \       
                 \___/    |_|  |_| |__|  |__|  |_| \__\ |__|  \__/        
                                                                              
                      - O R C A' S   B I G   F R I E N D -                    
                                      &                                       
                       - I N T E G R A L  F E E D E R -                       
                                                                              
 v1 FN, 2020, v2 2021                                                         
------------------------------------------------------------------------------


Reading SHARK input file input.SHARKINP.tmp ... ok
----------------------
SHARK INTEGRAL PACKAGE
----------------------

Number of atoms                             ...     43
Number of basis functions                   ...   1108
Number of shells                            ...    488
Maximum angular momentum                    ...      3
Integral batch strategy                     ... SHARK/LIBINT Hybrid
RI-J (if used) integral strategy            ... SPLIT-RIJ (Revised 2003 algorithm where possible)
Printlevel                                  ...      1
Contraction scheme used                     ... PARTIAL GENERAL contraction
Coulomb Range Separation                    ... NOT USED
Exchange Range Separation                   ... NOT USED
Finite Nucleus Model                        ... NOT USED
Auxiliary Coulomb fitting basis             ... NOT available
Auxiliary J/K fitting basis                 ... NOT available
Auxiliary Correlation fitting basis         ... AVAILABLE
   # of basis functions in Aux-C            ...   2463
   # of shells in Aux-C                     ...    729
   Maximum angular momentum in Aux-C        ...      4
Auxiliary 'external' fitting basis          ... NOT available
Integral threshold                          ...     2.500000e-11
Primitive cut-off                           ...     2.500000e-12
Primitive pair pre-selection threshold      ...     2.500000e-12

Calculating pre-screening integrals         ... done (  0.1 sec) Dimension = 488
Calculating pre-screening integrals (ORCA)  ... done (  0.2 sec) Dimension = 350
Organizing shell pair data                  ... done (  0.5 sec)
Shell pair information
Total number of shell pairs                 ...    119316
Shell pairs after pre-screening             ...     61728
Total number of primitive shell pairs       ...    165154
Primitive shell pairs kept                  ...     74929
          la=0 lb=0:  17991 shell pairs
          la=1 lb=0:  18140 shell pairs
          la=1 lb=1:   4259 shell pairs
          la=2 lb=0:   9457 shell pairs
          la=2 lb=1:   4695 shell pairs
          la=2 lb=2:   1305 shell pairs
          la=3 lb=0:   3203 shell pairs
          la=3 lb=1:   1619 shell pairs
          la=3 lb=2:    888 shell pairs
          la=3 lb=3:    171 shell pairs

Calculating one electron integrals          ... done (  0.1 sec)
Calculating RI/C V-Matrix + Cholesky decomp.... done (  0.4 sec)
Calculating Nuclear repulsion               ... done (  0.0 sec) ENN=   2103.720329397398 Eh

SHARK setup successfully completed in   2.2 seconds

Maximum memory used throughout the entire GTOINT-calculation: 85.3 MB


           ************************************************************
           *        Program running with 16 parallel MPI-processes    *
           *              working on a common directory               *
           ************************************************************
-------------------------------------------------------------------------------
                                 ORCA SCF
-------------------------------------------------------------------------------

------------
SCF SETTINGS
------------
Hamiltonian:
 Ab initio Hamiltonian  Method          .... Hartree-Fock(GTOs)


General Settings:
 Integral files         IntName         .... input
 Hartree-Fock type      HFTyp           .... RHF
 Total Charge           Charge          ....   -1
 Multiplicity           Mult            ....    1
 Number of Electrons    NEL             ....  174
 Basis Dimension        Dim             ....  970
 Nuclear Repulsion      ENuc            ....   2103.7203293974 Eh

Convergence Acceleration:
 DIIS                   CNVDIIS         .... on
   Start iteration      DIISMaxIt       ....    12
   Startup error        DIISStart       ....  0.200000
   # of expansion vecs  DIISMaxEq       ....     5
   Bias factor          DIISBfac        ....   1.050
   Max. coefficient     DIISMaxC        ....  10.000
 Trust-Rad. Augm. Hess. CNVTRAH         .... auto
   Auto Start mean grad. ratio tolernc. ....  1.125000
   Auto Start start iteration           ....    20
   Auto Start num. interpolation iter.  ....    10
   Max. Number of Micro iterations      ....    16
   Max. Number of Macro iterations      .... Maxiter - #DIIS iter
   Number of Davidson start vectors     ....     2
   Converg. threshold I  (grad. norm)   ....   1.000e-05
   Converg. threshold II (energy diff.) ....   1.000e-08
   Grad. Scal. Fac. for Micro threshold ....   0.100
   Minimum threshold for Micro iter.    ....   0.010
   NR start threshold (gradient norm)   ....   0.001
   Initial trust radius                 ....   0.400
   Minimum AH scaling param. (alpha)    ....   1.000
   Maximum AH scaling param. (alpha)    .... 1000.000
   Orbital update algorithm             .... Taylor
   White noise on init. David. guess    .... on
   Maximum white noise                  ....   0.010
   Quad. conv. algorithm                .... NR
 SOSCF                  CNVSOSCF        .... on
   Start iteration      SOSCFMaxIt      ....   150
   Startup grad/error   SOSCFStart      ....  0.003300
 Level Shifting         CNVShift        .... on
   Level shift para.    LevelShift      ....    0.2500
   Turn off err/grad.   ShiftErr        ....    0.0010
 Zerner damping         CNVZerner       .... off
 Static damping         CNVDamp         .... on
   Fraction old density DampFac         ....    0.7000
   Max. Damping (<1)    DampMax         ....    0.9800
   Min. Damping (>=0)   DampMin         ....    0.0000
   Turn off err/grad.   DampErr         ....    0.1000
 Fernandez-Rico         CNVRico         .... off

SCF Procedure:
 Maximum # iterations   MaxIter         ....   125
 SCF integral mode      SCFMode         .... Direct
   Integral package                     .... SHARK and LIBINT hybrid scheme
 Reset frequency        DirectResetFreq ....    20
 Integral Threshold     Thresh          ....  2.500e-11 Eh
 Primitive CutOff       TCut            ....  2.500e-12 Eh

Convergence Tolerance:
 Convergence Check Mode ConvCheckMode   .... Total+1el-Energy
 Convergence forced     ConvForced      .... 1
 Energy Change          TolE            ....  1.000e-08 Eh
 1-El. energy change                    ....  1.000e-05 Eh
 Orbital Gradient       TolG            ....  1.000e-05
 Orbital Rotation angle TolX            ....  1.000e-05
 DIIS Error             TolErr          ....  5.000e-07


Diagonalization of the overlap matrix:
Smallest eigenvalue                        ... 4.167e-05
Time for diagonalization                   ...    0.735 sec
Threshold for overlap eigenvalues          ... 1.000e-08
Number of eigenvalues below threshold      ... 0
Time for construction of square roots      ...    0.525 sec
Total time needed                          ...    1.266 sec

Time for model grid setup =    0.490 sec

------------------------------
INITIAL GUESS: MODEL POTENTIAL
------------------------------
Loading Hartree-Fock densities                     ... done
Calculating cut-offs                               ... done
Initializing the effective Hamiltonian             ... done
Setting up the integral package (SHARK)            ... done
Starting the Coulomb interaction                   ... done (   0.5 sec)
Reading the grid                                   ... done
Mapping shells                                     ... done
Starting the XC term evaluation                    ... done (   0.2 sec)
Transforming the Hamiltonian                       ... done (   0.5 sec)
Diagonalizing the Hamiltonian                      ... done (   0.6 sec)
Back transforming the eigenvectors                 ... done (   0.2 sec)
Now organizing SCF variables                       ... done
                      ------------------
                      INITIAL GUESS DONE (   2.7 sec)
                      ------------------
--------------
SCF ITERATIONS
--------------
ITER       Energy         Delta-E        Max-DP      RMS-DP      [F,P]     Damp
               ***  Starting incremental Fock matrix formation  ***
  0  -1153.5167126698   0.000000000000 0.11853377  0.00056019  0.3549853 0.7000
  1  -1153.9376324078  -0.420919737956 0.11525976  0.00048457  0.2144512 0.7000
                               ***Turning on DIIS***
  2  -1154.1871843497  -0.249551941958 0.06632134  0.00030642  0.1201265 0.7000
  3  -1156.8435874196  -2.656403069919 0.05921215  0.00053486  0.0830425 0.0000
  4  -1154.5923757541   2.251211665524 0.03767804  0.00013722  0.0080324 0.0000
  5  -1154.7327597819  -0.140384027831 0.00921633  0.00005582  0.0041243 0.0000
                      *** Initiating the SOSCF procedure ***
                           *** Shutting down DIIS ***
                      *** Re-Reading the Fockian *** 
                      *** Removing any level shift *** 
ITER      Energy       Delta-E        Grad      Rot      Max-DP    RMS-DP
  6  -1154.69844308   0.0343167004  0.000903  0.000903  0.004327  0.000028
               *** Restarting incremental Fock matrix formation ***
  7  -1154.70887283  -0.0104297441  0.000393  0.000904  0.001524  0.000014
  8  -1154.70890044  -0.0000276119  0.000212  0.000824  0.001087  0.000012
  9  -1154.70890947  -0.0000090354  0.000065  0.000133  0.000510  0.000003
 10  -1154.70891016  -0.0000006908  0.000019  0.000049  0.000155  0.000001
 11  -1154.70891025  -0.0000000837  0.000012  0.000041  0.000040  0.000000
 12  -1154.70891027  -0.0000000191  0.000004  0.000006  0.000026  0.000000
                  ***Gradient check signals convergence***
              ***Rediagonalizing the Fockian in SOSCF/NRSCF***

               *****************************************************
               *                     SUCCESS                       *
               *           SCF CONVERGED AFTER  13 CYCLES          *
               *****************************************************


----------------
TOTAL SCF ENERGY
----------------

Total Energy       :        -1154.70891027 Eh          -31421.22687 eV

Components:
Nuclear Repulsion  :         2103.72032940 Eh           57245.14045 eV
Electronic Energy  :        -3258.42923966 Eh          -88666.36732 eV
One Electron Energy:        -5787.66393139 Eh         -157490.34223 eV
Two Electron Energy:         2529.23469173 Eh           68823.97491 eV

Virial components:
Potential Energy   :        -2308.43691845 Eh          -62815.76204 eV
Kinetic Energy     :         1153.72800818 Eh           31394.53517 eV
Virial Ratio       :            2.00085020


---------------
SCF CONVERGENCE
---------------

  Last Energy change         ...    1.4206e-09  Tolerance :   1.0000e-08
  Last MAX-Density change    ...    1.0932e-05  Tolerance :   1.0000e-07
  Last RMS-Density change    ...    6.5847e-08  Tolerance :   5.0000e-09
  Last Orbital Gradient      ...    1.5338e-06  Tolerance :   1.0000e-05
  Last Orbital Rotation      ...    4.1655e-06  Tolerance :   1.0000e-05

             **** THE GBW FILE WAS UPDATED (input.gbw) ****
             **** DENSITY input.scfp WAS UPDATED ****
             **** ENERGY FILE WAS UPDATED (input.en.tmp) ****
             **** THE GBW FILE WAS UPDATED (input.gbw) ****
             **** DENSITY input.scfp WAS UPDATED ****
----------------
ORBITAL ENERGIES
----------------

  NO   OCC          E(Eh)            E(eV) 
   0   2.0000     -20.469436      -557.0017 
   1   2.0000     -20.424626      -555.7823 
   2   2.0000     -20.352375      -553.8163 
   3   2.0000     -20.345404      -553.6266 
   4   2.0000     -20.294332      -552.2368 
   5   2.0000     -20.288228      -552.0707 
   6   2.0000     -15.580823      -423.9757 
   7   2.0000     -15.573647      -423.7805 
   8   2.0000     -15.533462      -422.6870 
   9   2.0000     -11.365402      -309.2683 
  10   2.0000     -11.218998      -305.2845 
  11   2.0000     -11.191682      -304.5411 
  12   2.0000     -11.188196      -304.4463 
  13   2.0000     -11.178394      -304.1796 
  14   2.0000     -11.169792      -303.9455 
  15   2.0000     -11.168938      -303.9223 
  16   2.0000     -11.141135      -303.1657 
  17   2.0000     -11.098116      -301.9951 
  18   2.0000     -11.096741      -301.9577 
  19   2.0000     -11.094478      -301.8961 
  20   2.0000     -11.087757      -301.7132 
  21   2.0000     -11.087658      -301.7105 
  22   2.0000     -11.084625      -301.6280 
  23   2.0000      -1.327002       -36.1096 
  24   2.0000      -1.277769       -34.7699 
  25   2.0000      -1.266898       -34.4741 
  26   2.0000      -1.227367       -33.3984 
  27   2.0000      -1.194135       -32.4941 
  28   2.0000      -1.180107       -32.1123 
  29   2.0000      -1.163879       -31.6708 
  30   2.0000      -1.129925       -30.7468 
  31   2.0000      -1.071747       -29.1637 
  32   2.0000      -1.021408       -27.7939 
  33   2.0000      -1.010364       -27.4934 
  34   2.0000      -0.915948       -24.9242 
  35   2.0000      -0.908641       -24.7254 
  36   2.0000      -0.889212       -24.1967 
  37   2.0000      -0.825806       -22.4713 
  38   2.0000      -0.821837       -22.3633 
  39   2.0000      -0.775691       -21.1076 
  40   2.0000      -0.749538       -20.3960 
  41   2.0000      -0.741286       -20.1714 
  42   2.0000      -0.723495       -19.6873 
  43   2.0000      -0.694836       -18.9075 
  44   2.0000      -0.678979       -18.4759 
  45   2.0000      -0.640819       -17.4376 
  46   2.0000      -0.623991       -16.9797 
  47   2.0000      -0.605113       -16.4660 
  48   2.0000      -0.597999       -16.2724 
  49   2.0000      -0.593659       -16.1543 
  50   2.0000      -0.587429       -15.9848 
  51   2.0000      -0.576301       -15.6820 
  52   2.0000      -0.563409       -15.3311 
  53   2.0000      -0.556121       -15.1328 
  54   2.0000      -0.528610       -14.3842 
  55   2.0000      -0.524342       -14.2681 
  56   2.0000      -0.512344       -13.9416 
  57   2.0000      -0.501112       -13.6360 
  58   2.0000      -0.500231       -13.6120 
  59   2.0000      -0.495034       -13.4706 
  60   2.0000      -0.479967       -13.0606 
  61   2.0000      -0.465786       -12.6747 
  62   2.0000      -0.457027       -12.4363 
  63   2.0000      -0.452401       -12.3105 
  64   2.0000      -0.448176       -12.1955 
  65   2.0000      -0.446720       -12.1559 
  66   2.0000      -0.436108       -11.8671 
  67   2.0000      -0.431986       -11.7549 
  68   2.0000      -0.415467       -11.3054 
  69   2.0000      -0.405958       -11.0467 
  70   2.0000      -0.401498       -10.9253 
  71   2.0000      -0.396043       -10.7769 
  72   2.0000      -0.390668       -10.6306 
  73   2.0000      -0.378189       -10.2910 
  74   2.0000      -0.371858       -10.1188 
  75   2.0000      -0.355650        -9.6777 
  76   2.0000      -0.349880        -9.5207 
  77   2.0000      -0.328566        -8.9407 
  78   2.0000      -0.309774        -8.4294 
  79   2.0000      -0.273226        -7.4349 
  80   2.0000      -0.255207        -6.9445 
  81   2.0000      -0.244305        -6.6479 
  82   2.0000      -0.241942        -6.5836 
  83   2.0000      -0.229996        -6.2585 
  84   2.0000      -0.209189        -5.6923 
  85   2.0000      -0.196096        -5.3361 
  86   2.0000      -0.189079        -5.1451 
  87   0.0000       0.141134         3.8405 
  88   0.0000       0.183449         4.9919 
  89   0.0000       0.190124         5.1735 
  90   0.0000       0.212338         5.7780 
  91   0.0000       0.213587         5.8120 
  92   0.0000       0.228030         6.2050 
  93   0.0000       0.239779         6.5247 
  94   0.0000       0.245690         6.6856 
  95   0.0000       0.261016         7.1026 
  96   0.0000       0.272460         7.4140 
  97   0.0000       0.276766         7.5312 
  98   0.0000       0.281274         7.6539 
  99   0.0000       0.285594         7.7714 
 100   0.0000       0.295925         8.0525 
 101   0.0000       0.302179         8.2227 
 102   0.0000       0.303629         8.2622 
 103   0.0000       0.305375         8.3097 
 104   0.0000       0.325793         8.8653 
 105   0.0000       0.337101         9.1730 
 106   0.0000       0.358520         9.7558 
 107   0.0000       0.364004         9.9050 
 108   0.0000       0.370901        10.0927 
 109   0.0000       0.374073        10.1790 
 110   0.0000       0.383212        10.4277 
 111   0.0000       0.390365        10.6224 
 112   0.0000       0.395136        10.7522 
 113   0.0000       0.400538        10.8992 
 114   0.0000       0.409701        11.1485 
 115   0.0000       0.420861        11.4522 
 116   0.0000       0.421589        11.4720 
 117   0.0000       0.437480        11.9044 
 118   0.0000       0.438001        11.9186 
 119   0.0000       0.441443        12.0123 
 120   0.0000       0.457987        12.4625 
 121   0.0000       0.460724        12.5369 
 122   0.0000       0.469450        12.7744 
 123   0.0000       0.474496        12.9117 
 124   0.0000       0.482852        13.1391 
 125   0.0000       0.488781        13.3004 
 126   0.0000       0.492380        13.3983 
 127   0.0000       0.498149        13.5553 
 128   0.0000       0.511153        13.9092 
 129   0.0000       0.516159        14.0454 
 130   0.0000       0.528455        14.3800 
 131   0.0000       0.544207        14.8086 
 132   0.0000       0.547471        14.8975 
 133   0.0000       0.561270        15.2729 
 134   0.0000       0.563525        15.3343 
 135   0.0000       0.572545        15.5797 
 136   0.0000       0.574724        15.6390 
 137   0.0000       0.579774        15.7765 
 138   0.0000       0.585303        15.9269 
 139   0.0000       0.592891        16.1334 
 140   0.0000       0.596577        16.2337 
 141   0.0000       0.604023        16.4363 
 142   0.0000       0.608939        16.5701 
 143   0.0000       0.611578        16.6419 
 144   0.0000       0.616389        16.7728 
 145   0.0000       0.622002        16.9255 
 146   0.0000       0.625472        17.0200 
 147   0.0000       0.629382        17.1263 
 148   0.0000       0.639621        17.4050 
 149   0.0000       0.643968        17.5233 
 150   0.0000       0.648636        17.6503 
 151   0.0000       0.650979        17.7140 
 152   0.0000       0.659570        17.9478 
 153   0.0000       0.662572        18.0295 
 154   0.0000       0.666361        18.1326 
 155   0.0000       0.670615        18.2484 
 156   0.0000       0.678155        18.4535 
 157   0.0000       0.678912        18.4741 
 158   0.0000       0.685146        18.6438 
 159   0.0000       0.691253        18.8099 
 160   0.0000       0.697794        18.9879 
 161   0.0000       0.700132        19.0516 
 162   0.0000       0.708651        19.2834 
 163   0.0000       0.709592        19.3090 
 164   0.0000       0.714862        19.4524 
 165   0.0000       0.718637        19.5551 
 166   0.0000       0.719726        19.5847 
 167   0.0000       0.725308        19.7366 
 168   0.0000       0.730053        19.8658 
 169   0.0000       0.735438        20.0123 
 170   0.0000       0.741370        20.1737 
 171   0.0000       0.743645        20.2356 
 172   0.0000       0.748443        20.3662 
 173   0.0000       0.751620        20.4526 
 174   0.0000       0.755517        20.5587 
 175   0.0000       0.762866        20.7586 
 176   0.0000       0.765614        20.8334 
 177   0.0000       0.766736        20.8639 
 178   0.0000       0.775842        21.1117 
 179   0.0000       0.777913        21.1681 
 180   0.0000       0.780851        21.2480 
 181   0.0000       0.790933        21.5224 
 182   0.0000       0.792915        21.5763 
 183   0.0000       0.803395        21.8615 
 184   0.0000       0.811794        22.0900 
 185   0.0000       0.816653        22.2223 
 186   0.0000       0.822595        22.3839 
 187   0.0000       0.822901        22.3923 
 188   0.0000       0.835871        22.7452 
 189   0.0000       0.839002        22.8304 
 190   0.0000       0.843597        22.9554 
 191   0.0000       0.846003        23.0209 
 192   0.0000       0.858459        23.3598 
 193   0.0000       0.862293        23.4642 
 194   0.0000       0.868341        23.6287 
 195   0.0000       0.874216        23.7886 
 196   0.0000       0.878682        23.9101 
 197   0.0000       0.881208        23.9789 
 198   0.0000       0.886184        24.1143 
 199   0.0000       0.891266        24.2526 
 200   0.0000       0.901572        24.5330 
 201   0.0000       0.912398        24.8276 
 202   0.0000       0.924508        25.1571 
 203   0.0000       0.932449        25.3732 
 204   0.0000       0.943451        25.6726 
 205   0.0000       0.950666        25.8689 
 206   0.0000       0.958609        26.0851 
 207   0.0000       0.961018        26.1506 
 208   0.0000       0.964647        26.2494 
 209   0.0000       0.973754        26.4972 
 210   0.0000       0.982225        26.7277 
 211   0.0000       0.984435        26.7878 
 212   0.0000       0.992810        27.0157 
 213   0.0000       0.997987        27.1566 
 214   0.0000       1.006925        27.3998 
 215   0.0000       1.012217        27.5438 
 216   0.0000       1.017122        27.6773 
 217   0.0000       1.021595        27.7990 
 218   0.0000       1.025661        27.9096 
 219   0.0000       1.035600        28.1801 
 220   0.0000       1.039294        28.2806 
 221   0.0000       1.040982        28.3266 
 222   0.0000       1.054065        28.6826 
 223   0.0000       1.057485        28.7756 
 224   0.0000       1.068212        29.0675 
 225   0.0000       1.071556        29.1585 
 226   0.0000       1.074760        29.2457 
 227   0.0000       1.080718        29.4078 
 228   0.0000       1.082153        29.4469 
 229   0.0000       1.093138        29.7458 
 230   0.0000       1.101757        29.9803 
 231   0.0000       1.105248        30.0753 
 232   0.0000       1.119808        30.4715 
 233   0.0000       1.120398        30.4876 
 234   0.0000       1.129476        30.7346 
 235   0.0000       1.137011        30.9396 
 236   0.0000       1.143769        31.1235 
 237   0.0000       1.148493        31.2521 
 238   0.0000       1.160398        31.5760 
 239   0.0000       1.163509        31.6607 
 240   0.0000       1.166632        31.7457 
 241   0.0000       1.175410        31.9845 
 242   0.0000       1.187375        32.3101 
 243   0.0000       1.191023        32.4094 
 244   0.0000       1.197465        32.5847 
 245   0.0000       1.204918        32.7875 
 246   0.0000       1.207024        32.8448 
 247   0.0000       1.213863        33.0309 
 248   0.0000       1.218827        33.1660 
 249   0.0000       1.228057        33.4171 
 250   0.0000       1.229717        33.4623 
 251   0.0000       1.238244        33.6943 
 252   0.0000       1.243730        33.8436 
 253   0.0000       1.252368        34.0787 
 254   0.0000       1.260455        34.2987 
 255   0.0000       1.262996        34.3679 
 256   0.0000       1.274002        34.6673 
 257   0.0000       1.275027        34.6953 
 258   0.0000       1.281495        34.8713 
 259   0.0000       1.286924        35.0190 
 260   0.0000       1.304351        35.4932 
 261   0.0000       1.306358        35.5478 
 262   0.0000       1.313034        35.7295 
 263   0.0000       1.321163        35.9507 
 264   0.0000       1.325373        36.0652 
 265   0.0000       1.326978        36.1089 
 266   0.0000       1.337438        36.3935 
 267   0.0000       1.347146        36.6577 
 268   0.0000       1.350590        36.7514 
 269   0.0000       1.352742        36.8100 
 270   0.0000       1.356615        36.9154 
 271   0.0000       1.366752        37.1912 
 272   0.0000       1.372691        37.3528 
 273   0.0000       1.377361        37.4799 
 274   0.0000       1.384635        37.6778 
 275   0.0000       1.391260        37.8581 
 276   0.0000       1.399233        38.0751 
 277   0.0000       1.405786        38.2534 
 278   0.0000       1.408827        38.3361 
 279   0.0000       1.419814        38.6351 
 280   0.0000       1.425728        38.7960 
 281   0.0000       1.428702        38.8770 
 282   0.0000       1.439195        39.1625 
 283   0.0000       1.442171        39.2435 
 284   0.0000       1.446130        39.3512 
 285   0.0000       1.453186        39.5432 
 286   0.0000       1.457127        39.6504 
 287   0.0000       1.461560        39.7711 
 288   0.0000       1.470834        40.0234 
 289   0.0000       1.472348        40.0646 
 290   0.0000       1.487013        40.4637 
 291   0.0000       1.495889        40.7052 
 292   0.0000       1.504287        40.9337 
 293   0.0000       1.508137        41.0385 
 294   0.0000       1.512093        41.1461 
 295   0.0000       1.515978        41.2519 
 296   0.0000       1.518712        41.3263 
 297   0.0000       1.523328        41.4519 
 298   0.0000       1.525342        41.5067 
 299   0.0000       1.532863        41.7113 
 300   0.0000       1.540281        41.9132 
 301   0.0000       1.544044        42.0156 
 302   0.0000       1.549687        42.1691 
 303   0.0000       1.560532        42.4642 
 304   0.0000       1.563976        42.5579 
 305   0.0000       1.573067        42.8053 
 306   0.0000       1.582536        43.0630 
 307   0.0000       1.586112        43.1603 
 308   0.0000       1.589677        43.2573 
 309   0.0000       1.595082        43.4044 
 310   0.0000       1.599673        43.5293 
 311   0.0000       1.602380        43.6030 
 312   0.0000       1.604262        43.6542 
 313   0.0000       1.615079        43.9485 
 314   0.0000       1.619875        44.0791 
 315   0.0000       1.626136        44.2494 
 316   0.0000       1.635857        44.5139 
 317   0.0000       1.640990        44.6536 
 318   0.0000       1.643250        44.7151 
 319   0.0000       1.649870        44.8952 
 320   0.0000       1.657396        45.1000 
 321   0.0000       1.664658        45.2977 
 322   0.0000       1.674255        45.5588 
 323   0.0000       1.685514        45.8652 
 324   0.0000       1.695972        46.1497 
 325   0.0000       1.699554        46.2472 
 326   0.0000       1.706689        46.4414 
 327   0.0000       1.712811        46.6080 
 328   0.0000       1.715864        46.6910 
 329   0.0000       1.718334        46.7583 
 330   0.0000       1.720984        46.8304 
 331   0.0000       1.731315        47.1115 
 332   0.0000       1.741894        47.3993 
 333   0.0000       1.753305        47.7099 
 334   0.0000       1.759203        47.8704 
 335   0.0000       1.765363        48.0380 
 336   0.0000       1.772416        48.2299 
 337   0.0000       1.786840        48.6224 
 338   0.0000       1.788847        48.6770 
 339   0.0000       1.794166        48.8217 
 340   0.0000       1.806796        49.1654 
 341   0.0000       1.819225        49.5036 
 342   0.0000       1.823722        49.6260 
 343   0.0000       1.837453        49.9996 
 344   0.0000       1.844309        50.1862 
 345   0.0000       1.848652        50.3044 
 346   0.0000       1.864349        50.7315 
 347   0.0000       1.870941        50.9109 
 348   0.0000       1.874766        51.0150 
 349   0.0000       1.881532        51.1991 
 350   0.0000       1.889275        51.4098 
 351   0.0000       1.893814        51.5333 
 352   0.0000       1.909116        51.9497 
 353   0.0000       1.911169        52.0056 
 354   0.0000       1.920365        52.2558 
 355   0.0000       1.929338        52.4999 
 356   0.0000       1.939661        52.7809 
 357   0.0000       1.951162        53.0938 
 358   0.0000       1.955286        53.2060 
 359   0.0000       1.959522        53.3213 
 360   0.0000       1.971686        53.6523 
 361   0.0000       1.975064        53.7442 
 362   0.0000       1.996190        54.3191 
 363   0.0000       2.003614        54.5211 
 364   0.0000       2.005472        54.5717 
 365   0.0000       2.015460        54.8435 
 366   0.0000       2.026256        55.1372 
 367   0.0000       2.040169        55.5158 
 368   0.0000       2.047649        55.7194 
 369   0.0000       2.054419        55.9036 
 370   0.0000       2.065034        56.1924 
 371   0.0000       2.069163        56.3048 
 372   0.0000       2.081527        56.6412 
 373   0.0000       2.090439        56.8837 
 374   0.0000       2.105933        57.3053 
 375   0.0000       2.116317        57.5879 
 376   0.0000       2.121331        57.7243 
 377   0.0000       2.128282        57.9135 
 378   0.0000       2.136506        58.1373 
 379   0.0000       2.143568        58.3294 
 380   0.0000       2.162098        58.8337 
 381   0.0000       2.173743        59.1506 
 382   0.0000       2.182553        59.3903 
 383   0.0000       2.184347        59.4391 
 384   0.0000       2.189383        59.5762 
 385   0.0000       2.217381        60.3380 
 386   0.0000       2.226043        60.5737 
 387   0.0000       2.233907        60.7877 
 388   0.0000       2.237608        60.8884 
 389   0.0000       2.247722        61.1636 
 390   0.0000       2.258149        61.4473 
 391   0.0000       2.281826        62.0916 
 392   0.0000       2.292388        62.3790 
 393   0.0000       2.296697        62.4963 
 394   0.0000       2.313598        62.9562 
 395   0.0000       2.343264        63.7634 
 396   0.0000       2.359057        64.1932 
 397   0.0000       2.372073        64.5474 
 398   0.0000       2.380975        64.7896 
 399   0.0000       2.393836        65.1396 
 400   0.0000       2.431015        66.1513 
 401   0.0000       2.446342        66.5683 
 402   0.0000       2.452119        66.7255 
 403   0.0000       2.480192        67.4894 
 404   0.0000       2.499657        68.0191 
 405   0.0000       2.523421        68.6658 
 406   0.0000       2.534098        68.9563 
 407   0.0000       2.563098        69.7454 
 408   0.0000       2.567879        69.8755 
 409   0.0000       2.576449        70.1087 
 410   0.0000       2.595345        70.6229 
 411   0.0000       2.600061        70.7513 
 412   0.0000       2.611321        71.0577 
 413   0.0000       2.615576        71.1734 
 414   0.0000       2.626198        71.4625 
 415   0.0000       2.630951        71.5918 
 416   0.0000       2.636842        71.7521 
 417   0.0000       2.646197        72.0067 
 418   0.0000       2.654874        72.2428 
 419   0.0000       2.674199        72.7687 
 420   0.0000       2.684612        73.0520 
 421   0.0000       2.700424        73.4823 
 422   0.0000       2.703939        73.5779 
 423   0.0000       2.714626        73.8687 
 424   0.0000       2.725199        74.1564 
 425   0.0000       2.729418        74.2712 
 426   0.0000       2.747011        74.7500 
 427   0.0000       2.753726        74.9327 
 428   0.0000       2.766195        75.2720 
 429   0.0000       2.775917        75.5365 
 430   0.0000       2.782368        75.7121 
 431   0.0000       2.789102        75.8953 
 432   0.0000       2.795859        76.0792 
 433   0.0000       2.805405        76.3390 
 434   0.0000       2.839484        77.2663 
 435   0.0000       2.858942        77.7958 
 436   0.0000       2.865810        77.9827 
 437   0.0000       2.867738        78.0351 
 438   0.0000       2.872623        78.1681 
 439   0.0000       2.886805        78.5540 
 440   0.0000       2.900951        78.9389 
 441   0.0000       2.910244        79.1918 
 442   0.0000       2.916540        79.3631 
 443   0.0000       2.922906        79.5363 
 444   0.0000       2.933989        79.8379 
 445   0.0000       2.943929        80.1084 
 446   0.0000       2.957208        80.4697 
 447   0.0000       2.963383        80.6377 
 448   0.0000       2.971504        80.8587 
 449   0.0000       2.974813        80.9488 
 450   0.0000       2.981316        81.1257 
 451   0.0000       2.988478        81.3206 
 452   0.0000       2.993229        81.4499 
 453   0.0000       3.003491        81.7291 
 454   0.0000       3.029151        82.4274 
 455   0.0000       3.037242        82.6476 
 456   0.0000       3.042025        82.7777 
 457   0.0000       3.042838        82.7998 
 458   0.0000       3.053387        83.0869 
 459   0.0000       3.059516        83.2537 
 460   0.0000       3.063026        83.3492 
 461   0.0000       3.065003        83.4030 
 462   0.0000       3.070788        83.5604 
 463   0.0000       3.084313        83.9284 
 464   0.0000       3.090219        84.0891 
 465   0.0000       3.095354        84.2289 
 466   0.0000       3.102644        84.4272 
 467   0.0000       3.109341        84.6095 
 468   0.0000       3.115316        84.7720 
 469   0.0000       3.127743        85.1102 
 470   0.0000       3.133935        85.2787 
 471   0.0000       3.144453        85.5649 
 472   0.0000       3.152246        85.7770 
 473   0.0000       3.160797        86.0096 
 474   0.0000       3.166404        86.1622 
 475   0.0000       3.167169        86.1830 
 476   0.0000       3.173112        86.3448 
 477   0.0000       3.190662        86.8223 
 478   0.0000       3.193172        86.8906 
 479   0.0000       3.199464        87.0618 
 480   0.0000       3.201289        87.1115 
 481   0.0000       3.215386        87.4951 
 482   0.0000       3.218016        87.5667 
 483   0.0000       3.219634        87.6107 
 484   0.0000       3.234517        88.0157 
 485   0.0000       3.238156        88.1147 
 486   0.0000       3.242457        88.2317 
 487   0.0000       3.248704        88.4017 
 488   0.0000       3.258773        88.6757 
 489   0.0000       3.268780        88.9480 
 490   0.0000       3.271021        89.0090 
 491   0.0000       3.274838        89.1129 
 492   0.0000       3.296678        89.7072 
 493   0.0000       3.300083        89.7998 
 494   0.0000       3.306940        89.9864 
 495   0.0000       3.315548        90.2206 
 496   0.0000       3.316334        90.2420 
 497   0.0000       3.322135        90.3999 
 498   0.0000       3.327488        90.5456 
 499   0.0000       3.333962        90.7217 
 500   0.0000       3.339811        90.8809 
 501   0.0000       3.341999        90.9404 
 502   0.0000       3.356130        91.3250 
 503   0.0000       3.360103        91.4330 
 504   0.0000       3.364246        91.5458 
 505   0.0000       3.375935        91.8639 
 506   0.0000       3.381060        92.0033 
 507   0.0000       3.386336        92.1469 
 508   0.0000       3.392831        92.3236 
 509   0.0000       3.396261        92.4170 
 510   0.0000       3.399127        92.4950 
 511   0.0000       3.405530        92.6692 
 512   0.0000       3.416042        92.9552 
 513   0.0000       3.423929        93.1699 
 514   0.0000       3.424982        93.1985 
 515   0.0000       3.432022        93.3901 
 516   0.0000       3.437941        93.5511 
 517   0.0000       3.445190        93.7484 
 518   0.0000       3.449395        93.8628 
 519   0.0000       3.455799        94.0371 
 520   0.0000       3.460896        94.1758 
 521   0.0000       3.477219        94.6199 
 522   0.0000       3.478906        94.6659 
 523   0.0000       3.481958        94.7489 
 524   0.0000       3.487429        94.8978 
 525   0.0000       3.493915        95.0743 
 526   0.0000       3.495228        95.1100 
 527   0.0000       3.500188        95.2450 
 528   0.0000       3.509645        95.5023 
 529   0.0000       3.513179        95.5985 
 530   0.0000       3.518929        95.7549 
 531   0.0000       3.520890        95.8083 
 532   0.0000       3.529983        96.0557 
 533   0.0000       3.535567        96.2077 
 534   0.0000       3.544698        96.4561 
 535   0.0000       3.555225        96.7426 
 536   0.0000       3.558437        96.8300 
 537   0.0000       3.559384        96.8558 
 538   0.0000       3.566458        97.0482 
 539   0.0000       3.573521        97.2404 
 540   0.0000       3.580210        97.4225 
 541   0.0000       3.584533        97.5401 
 542   0.0000       3.587575        97.6229 
 543   0.0000       3.599307        97.9421 
 544   0.0000       3.603676        98.0610 
 545   0.0000       3.607954        98.1774 
 546   0.0000       3.619419        98.4894 
 547   0.0000       3.620617        98.5220 
 548   0.0000       3.629844        98.7731 
 549   0.0000       3.634766        98.9070 
 550   0.0000       3.637012        98.9681 
 551   0.0000       3.641353        99.0863 
 552   0.0000       3.646042        99.2139 
 553   0.0000       3.653908        99.4279 
 554   0.0000       3.660889        99.6179 
 555   0.0000       3.664211        99.7083 
 556   0.0000       3.668634        99.8286 
 557   0.0000       3.673355        99.9571 
 558   0.0000       3.683380       100.2299 
 559   0.0000       3.687044       100.3296 
 560   0.0000       3.691233       100.4436 
 561   0.0000       3.698583       100.6436 
 562   0.0000       3.702627       100.7536 
 563   0.0000       3.708654       100.9176 
 564   0.0000       3.728828       101.4666 
 565   0.0000       3.731604       101.5421 
 566   0.0000       3.734946       101.6330 
 567   0.0000       3.739938       101.7689 
 568   0.0000       3.747506       101.9748 
 569   0.0000       3.749678       102.0339 
 570   0.0000       3.759386       102.2981 
 571   0.0000       3.769707       102.5789 
 572   0.0000       3.771645       102.6317 
 573   0.0000       3.773659       102.6865 
 574   0.0000       3.780018       102.8595 
 575   0.0000       3.792210       103.1913 
 576   0.0000       3.793743       103.2330 
 577   0.0000       3.802632       103.4749 
 578   0.0000       3.809883       103.6722 
 579   0.0000       3.816563       103.8540 
 580   0.0000       3.820221       103.9535 
 581   0.0000       3.824038       104.0574 
 582   0.0000       3.832069       104.2759 
 583   0.0000       3.840969       104.5181 
 584   0.0000       3.843770       104.5943 
 585   0.0000       3.856118       104.9303 
 586   0.0000       3.862982       105.1171 
 587   0.0000       3.864415       105.1561 
 588   0.0000       3.869376       105.2911 
 589   0.0000       3.877284       105.5063 
 590   0.0000       3.884259       105.6961 
 591   0.0000       3.887050       105.7720 
 592   0.0000       3.892122       105.9100 
 593   0.0000       3.897425       106.0543 
 594   0.0000       3.909453       106.3816 
 595   0.0000       3.913751       106.4986 
 596   0.0000       3.919174       106.6462 
 597   0.0000       3.922176       106.7278 
 598   0.0000       3.925522       106.8189 
 599   0.0000       3.932397       107.0060 
 600   0.0000       3.937483       107.1443 
 601   0.0000       3.940650       107.2305 
 602   0.0000       3.951908       107.5369 
 603   0.0000       3.956694       107.6671 
 604   0.0000       3.958480       107.7157 
 605   0.0000       3.965468       107.9059 
 606   0.0000       3.978447       108.2591 
 607   0.0000       3.981967       108.3548 
 608   0.0000       3.989636       108.5635 
 609   0.0000       3.998987       108.8180 
 610   0.0000       3.999918       108.8433 
 611   0.0000       4.008189       109.0684 
 612   0.0000       4.015396       109.2645 
 613   0.0000       4.021173       109.4217 
 614   0.0000       4.029834       109.6574 
 615   0.0000       4.038653       109.8973 
 616   0.0000       4.049913       110.2037 
 617   0.0000       4.059008       110.4512 
 618   0.0000       4.071488       110.7908 
 619   0.0000       4.077252       110.9477 
 620   0.0000       4.079070       110.9971 
 621   0.0000       4.091206       111.3274 
 622   0.0000       4.102466       111.6338 
 623   0.0000       4.106549       111.7449 
 624   0.0000       4.111664       111.8841 
 625   0.0000       4.116306       112.0104 
 626   0.0000       4.128386       112.3391 
 627   0.0000       4.139118       112.6311 
 628   0.0000       4.145406       112.8022 
 629   0.0000       4.148285       112.8806 
 630   0.0000       4.154879       113.0600 
 631   0.0000       4.158917       113.1699 
 632   0.0000       4.165094       113.3380 
 633   0.0000       4.172370       113.5360 
 634   0.0000       4.177717       113.6815 
 635   0.0000       4.181496       113.7843 
 636   0.0000       4.189984       114.0153 
 637   0.0000       4.190670       114.0339 
 638   0.0000       4.202327       114.3511 
 639   0.0000       4.208936       114.5310 
 640   0.0000       4.212827       114.6369 
 641   0.0000       4.219665       114.8229 
 642   0.0000       4.222972       114.9129 
 643   0.0000       4.227491       115.0359 
 644   0.0000       4.238398       115.3327 
 645   0.0000       4.244096       115.4877 
 646   0.0000       4.248508       115.6078 
 647   0.0000       4.252275       115.7103 
 648   0.0000       4.260010       115.9208 
 649   0.0000       4.267587       116.1269 
 650   0.0000       4.274620       116.3183 
 651   0.0000       4.287920       116.6802 
 652   0.0000       4.292476       116.8042 
 653   0.0000       4.301166       117.0407 
 654   0.0000       4.306987       117.1991 
 655   0.0000       4.310303       117.2893 
 656   0.0000       4.316027       117.4451 
 657   0.0000       4.321293       117.5884 
 658   0.0000       4.331108       117.8555 
 659   0.0000       4.336149       117.9926 
 660   0.0000       4.348758       118.3357 
 661   0.0000       4.353097       118.4538 
 662   0.0000       4.361185       118.6739 
 663   0.0000       4.368462       118.8719 
 664   0.0000       4.375904       119.0744 
 665   0.0000       4.387583       119.3922 
 666   0.0000       4.390219       119.4639 
 667   0.0000       4.396606       119.6377 
 668   0.0000       4.403381       119.8221 
 669   0.0000       4.411559       120.0446 
 670   0.0000       4.415226       120.1444 
 671   0.0000       4.416545       120.1803 
 672   0.0000       4.424127       120.3866 
 673   0.0000       4.433358       120.6378 
 674   0.0000       4.442572       120.8885 
 675   0.0000       4.448344       121.0456 
 676   0.0000       4.455251       121.2335 
 677   0.0000       4.464568       121.4871 
 678   0.0000       4.467173       121.5580 
 679   0.0000       4.477546       121.8402 
 680   0.0000       4.485946       122.0688 
 681   0.0000       4.492799       122.2553 
 682   0.0000       4.495094       122.3177 
 683   0.0000       4.510506       122.7371 
 684   0.0000       4.512094       122.7803 
 685   0.0000       4.523960       123.1032 
 686   0.0000       4.530484       123.2807 
 687   0.0000       4.533192       123.3544 
 688   0.0000       4.544846       123.6715 
 689   0.0000       4.550234       123.8181 
 690   0.0000       4.554349       123.9301 
 691   0.0000       4.560250       124.0907 
 692   0.0000       4.570836       124.3788 
 693   0.0000       4.581312       124.6638 
 694   0.0000       4.588539       124.8605 
 695   0.0000       4.594253       125.0160 
 696   0.0000       4.595789       125.0578 
 697   0.0000       4.600919       125.1974 
 698   0.0000       4.605498       125.3220 
 699   0.0000       4.609089       125.4197 
 700   0.0000       4.623000       125.7982 
 701   0.0000       4.630308       125.9971 
 702   0.0000       4.638452       126.2187 
 703   0.0000       4.644164       126.3741 
 704   0.0000       4.649560       126.5210 
 705   0.0000       4.650576       126.5486 
 706   0.0000       4.660847       126.8281 
 707   0.0000       4.669578       127.0657 
 708   0.0000       4.674578       127.2017 
 709   0.0000       4.679796       127.3437 
 710   0.0000       4.682531       127.4181 
 711   0.0000       4.699574       127.8819 
 712   0.0000       4.709811       128.1605 
 713   0.0000       4.714485       128.2877 
 714   0.0000       4.718294       128.3913 
 715   0.0000       4.725132       128.5774 
 716   0.0000       4.731433       128.7488 
 717   0.0000       4.742839       129.0592 
 718   0.0000       4.752239       129.3150 
 719   0.0000       4.760559       129.5414 
 720   0.0000       4.772805       129.8746 
 721   0.0000       4.778512       130.0299 
 722   0.0000       4.787935       130.2863 
 723   0.0000       4.791449       130.3820 
 724   0.0000       4.793171       130.4288 
 725   0.0000       4.812533       130.9557 
 726   0.0000       4.816147       131.0540 
 727   0.0000       4.818766       131.1253 
 728   0.0000       4.828429       131.3882 
 729   0.0000       4.838326       131.6576 
 730   0.0000       4.847399       131.9044 
 731   0.0000       4.852705       132.0488 
 732   0.0000       4.861464       132.2872 
 733   0.0000       4.879851       132.7875 
 734   0.0000       4.884510       132.9143 
 735   0.0000       4.894322       133.1813 
 736   0.0000       4.908008       133.5537 
 737   0.0000       4.916105       133.7740 
 738   0.0000       4.918374       133.8357 
 739   0.0000       4.924986       134.0157 
 740   0.0000       4.934882       134.2850 
 741   0.0000       4.951232       134.7299 
 742   0.0000       4.958453       134.9264 
 743   0.0000       4.963584       135.0660 
 744   0.0000       4.979005       135.4856 
 745   0.0000       4.994527       135.9080 
 746   0.0000       4.994640       135.9111 
 747   0.0000       5.013144       136.4146 
 748   0.0000       5.023888       136.7069 
 749   0.0000       5.028811       136.8409 
 750   0.0000       5.036078       137.0386 
 751   0.0000       5.040420       137.1568 
 752   0.0000       5.051939       137.4702 
 753   0.0000       5.078472       138.1923 
 754   0.0000       5.085910       138.3946 
 755   0.0000       5.097948       138.7222 
 756   0.0000       5.102017       138.8329 
 757   0.0000       5.111809       139.0994 
 758   0.0000       5.117689       139.2594 
 759   0.0000       5.125863       139.4818 
 760   0.0000       5.138089       139.8145 
 761   0.0000       5.149176       140.1162 
 762   0.0000       5.167283       140.6089 
 763   0.0000       5.172766       140.7581 
 764   0.0000       5.178411       140.9117 
 765   0.0000       5.185719       141.1106 
 766   0.0000       5.208538       141.7315 
 767   0.0000       5.210625       141.7883 
 768   0.0000       5.219616       142.0330 
 769   0.0000       5.226410       142.2179 
 770   0.0000       5.234775       142.4455 
 771   0.0000       5.241866       142.6384 
 772   0.0000       5.249159       142.8369 
 773   0.0000       5.253582       142.9572 
 774   0.0000       5.265371       143.2780 
 775   0.0000       5.271229       143.4374 
 776   0.0000       5.291073       143.9774 
 777   0.0000       5.291637       143.9928 
 778   0.0000       5.303146       144.3059 
 779   0.0000       5.307117       144.4140 
 780   0.0000       5.310088       144.4948 
 781   0.0000       5.322314       144.8275 
 782   0.0000       5.326219       144.9338 
 783   0.0000       5.351574       145.6237 
 784   0.0000       5.371766       146.1732 
 785   0.0000       5.378232       146.3491 
 786   0.0000       5.393240       146.7575 
 787   0.0000       5.401836       146.9914 
 788   0.0000       5.427863       147.6997 
 789   0.0000       5.445431       148.1777 
 790   0.0000       5.450402       148.3130 
 791   0.0000       5.475273       148.9898 
 792   0.0000       5.480759       149.1390 
 793   0.0000       5.498713       149.6276 
 794   0.0000       5.502818       149.7393 
 795   0.0000       5.508407       149.8914 
 796   0.0000       5.531877       150.5300 
 797   0.0000       5.545496       150.9006 
 798   0.0000       5.551097       151.0530 
 799   0.0000       5.558754       151.2614 
 800   0.0000       5.566275       151.4661 
 801   0.0000       5.571832       151.6172 
 802   0.0000       5.589445       152.0965 
 803   0.0000       5.598228       152.3355 
 804   0.0000       5.602465       152.4508 
 805   0.0000       5.606749       152.5674 
 806   0.0000       5.634374       153.3191 
 807   0.0000       5.642831       153.5492 
 808   0.0000       5.654677       153.8716 
 809   0.0000       5.656224       153.9137 
 810   0.0000       5.674645       154.4149 
[...]

PNO truncation parameters                   .... 
    ScaleTCutPNO       =        1.000e-02
    PAOOverlapThresh   =        1.000e-08

    TCutPairs          =        1.000e-05
    TCutPNO            =        1.000e-07
    TCutPNOSingles     =        3.000e-09
    TCutMP2Pairs       =        1.000e-06
    TCutMKN            =        1.000e-03
    TCutDO             =        5.000e-03

Pair selection                          .... not used
Type of local MP2 treatment                 .... full local PMP2
Strategy for PNO selection                  .... occupation number selection
Pair density normalization                  .... MP2 norm
Spin component scaling                      .... not used

PASS-1: Formation of initial guess LMP2 amplitudes
Initial amplitudes guess done. Entering LMP2 iteration loop:
   Max. no of iterations          ...  50
   Energy convergence tolerance   ...    1.0e-07
   Residual convergence tolerance ...    5.0e-07
   Fock matrix cutoff             ...    1.0e-05 Eh
   DIIS convergence acceleration parameters:
        Max # vectors in DIIS     ... 7
        Start iteration of DIIS   ... 0
        Levelshift                ... 2.000e-01
        Damping factor 1          ... 5.000e-01
        Damping factor 2          ... 1.000e+00
   L-MP2 PNO cut-off              ...   1.0e-09
   L-MP2 PNO cut-off (core)       ...   1.0e-11
                           *** Turning on DIIS ***
LMP2-Iter=   0:  ELMP2= -4.255949089555  DE=   1.0e-01 RMAX=   1.9e-02
LMP2-Iter=   1:  ELMP2= -4.309324568230  DE=   5.3e-02 RMAX=   8.8e-03
LMP2-Iter=   2:  ELMP2= -4.320018735025  DE=   1.1e-02 RMAX=   3.5e-03
LMP2-Iter=   3:  ELMP2= -4.321407161253  DE=   1.4e-03 RMAX=   1.2e-03
LMP2-Iter=   4:  ELMP2= -4.321411910079  DE=   4.7e-06 RMAX=   3.3e-04
LMP2-Iter=   5:  ELMP2= -4.321375137871  DE=   3.7e-05 RMAX=   1.0e-04
LMP2-Iter=   6:  ELMP2= -4.321369191539  DE=   5.9e-06 RMAX=   2.5e-05
LMP2-Iter=   7:  ELMP2= -4.321369812384  DE=   6.2e-07 RMAX=   8.2e-06
LMP2-Iter=   8:  ELMP2= -4.321370326359  DE=   5.1e-07 RMAX=   2.3e-06
LMP2-Iter=   9:  ELMP2= -4.321370280809  DE=   4.6e-08 RMAX=   7.5e-07
LMP2-Iter=  10:  ELMP2= -4.321370283876  DE=   3.1e-09 RMAX=   1.7e-07
LMP2-Iter=  11:  ELMP2= -4.321370264706  DE=   1.9e-08 RMAX=   4.3e-08 => CONVERGED
PASS-2: Formation of Pair natural orbitals
   .... Finished loop over pairs

 PNO Occupation Number Statistics: 
  | Av. % of trace(Dij) retained        ...  97.923423537958
  | sigma^2 in % of trace(Dij) retained ...   8.61e+00
  | Av. % of trace(Di) retained         ...  99.999687587516
  | sigma^2 in % of trace(Di) retained  ...   7.95e-09
 Distributions of % trace(Dij) recovered:
  |       >= 99.9  ...   226 ( 12.4 % of all pairs)
  |   [70.0, 80.0) ...     7 (  0.4 % of all pairs)
  |   [80.0, 90.0) ...    60 (  3.3 % of all pairs)
  |   [90.0, 99.0) ...   965 ( 53.0 % of all pairs)
  |   [99.0, 99.9) ...   563 ( 30.9 % of all pairs)
 Distributions of % trace(Di) recovered :
  |       >= 99.9  ...    64 (100.0 % of all I-pairs )

Making pair pair interaction lists          ... done

                       ===========================
                       1239 OF 1821 PAIRS ARE KEPT
                       ===========================

Total time spent in the initial guess                 ...  3446.183 sec
L-MP2 correlation energy (all non-screened pairs)     ...      -4.321370264706 Eh
L-MP2 PNO error correction                            ...      -0.000178487733 Eh
                                                          --------------------
Initial total L-MP2 energy (non-screened pairs)       ...      -4.321548752439 Eh

Initial PNO correlation energy                        ...      -4.313859783048 Eh
sum of pair energies estimated for screened out pairs ...      -0.000105813491 Eh
sum of MP2 pair energies for pairs that were not kept ...      -0.003017321683 Eh
sum of PNO error estimates for the kept pairs         ...      -0.005264914394 Eh
                                                          --------------------
sum of all corrections                                         -0.008388049567
Initial total correlation energy                               -4.322247832615
Thresholds for map construction and integral transformation for fine MP2 and CCSD(T) calculation:
   TCutMKN   ...     1.0e-03
   TCutDO    ...     5.0e-03
   TCutPairs ...     1.0e-05
   TCutCMO   ...     1.0e-03
   TCutCPAO  ...     1.0e-03

Time for aux screen maps:            0.015
Time for maps after fine MP2:            0.102
-----------------------------
LOCAL RI TRANSFORMATION (IJV)
-----------------------------

Orbital window:      23 to 86
Basis functions:    970 (350 shells)
Aux. functions:    2463 (729 shells)
Use SHARK:           on

Processing maps (0.0 sec)
Average map sizes:
   Aux shells -> MOs(i)           57.7
   Aux shells -> MOs(j)           64.0
   MOs        -> AO shells       297.2

Calculating integrals (18.3 sec, 69.567 MB)
Sorting integrals (0.2 sec, 69.540 MB)
Total time for the integral transformation: 18.5 sec
--------------------------------
LOCAL RI TRANSFORMATION (VABPAO)
--------------------------------

Number of PAOs:     970
Basis functions:    970 (350 shells)
Aux. functions:    2463 (729 shells)
Use SHARK:           on

Processing maps (0.0 sec)
Average map sizes:
   Aux shells -> PAOs            959.2
   PAOs       -> AO shells       336.9

Calculating integrals (125.1 sec, 17309.388 MB)
Finished


-------------------------------------
Pair Pair Term precalculation with     
RI-(ij|mn) and (im|jn) transformation  
ON THE FLY                             
-------------------------------------

   IBatch   1 (of   4)              ... done (  327.885 sec)
   IBatch   2 (of   4)              ... done (  505.786 sec)
   IBatch   3 (of   4)              ... done (  466.171 sec)
   IBatch   4 (of   4)              ... done (  119.214 sec)
Total EXT                           ...        1419.105 sec

---------------------
RI-PNO TRANSFORMATION
---------------------

Total Number of PNOs                   ... 36093
Average number of PNOs per pair        ...    29
Maximal number of PNOs per pair        ...    82
   #pairs with  1 -  5 PNOs   :    0
   #pairs with  6 - 10 PNOs   :  315
   #pairs with 11 - 15 PNOs   :  150
   #pairs with 16 - 20 PNOs   :   92
   #pairs with 21 - 25 PNOs   :   85
   #pairs with 26 - 30 PNOs   :   83
   #pairs with 31 - 35 PNOs   :   82
   #pairs with 36 - 40 PNOs   :   55
   #pairs with 41 - 45 PNOs   :   49
   #pairs with 46 - 50 PNOs   :   65
   #pairs with 51 - 55 PNOs   :   98
   #pairs with 56 - 60 PNOs   :   37
   #pairs with 61 - 65 PNOs   :   65
   #pairs with 66 - 70 PNOs   :   45
   #pairs with 71 - 75 PNOs   :   16
   #pairs with 81 - 85 PNOs   :    2

Generation of (ij|ab)[P] integrals            ... on
Generation of (ia|bc)[P],(ja|bc)[P] integrals ... on
Storage of 3 and 4 external integrals         ... on
Generation of ALL (ka|bc)[P] integrals        ... on
Keep RI integrals in memory                   ... off

Ibatch:  1 (of  1)
Starting 2-4 index PNO integral generation ... done

Timings:
Total PNO integral transformation time     ...       1425.479 sec
Size of the 3-external file                ...       623 MB
Size of the 4-external file                ...      4453 MB
Size of the IKJL file                      ...         1 MB
Size of the all 3-external file            ...     18720 MB
Size of the 1-external file                ...        50 MB

Making pair/pair overlap matrices          ... done (  401.069 sec)
Size of the pair overlap file              ... 6403 MB
Redoing the guess amplitudes               ... done (    0.162 sec)

-------------------------
FINAL STARTUP INFORMATION
-------------------------

E(0)                                       ...  -1154.708910268
E(L-MP2)                                   ...     -4.321548752
E(L-MP2) including corrections             ...     -4.322247833
Initial E(tot)                             ...  -1159.031158100
<T|T>                                      ...      1.093479333
Number of pairs included                   ... 1239
Total number of pairs                      ... 2080

------------------------------------------------
                  RHF COUPLED CLUSTER ITERATIONS
------------------------------------------------

Number of PNO amplitudes to be optimized   ...      1553475
Number of non-PNO amplitudes               ...    966034671
Untruncated number of regular amplitudes   ...   1621753120

Iter       E(tot)           E(Corr)          Delta-E          Residual     Time
  0  -1158.862783888     -4.145485571      0.176063182      0.018078060 3231.47
                           *** Turning on DIIS ***
  1  -1158.967344294     -4.250045976     -0.104560406      0.012546548 3126.99
  2  -1159.069452943     -4.352154626     -0.102108650      0.006503231 3397.94
  3  -1159.092012390     -4.374714073     -0.022559447      0.003862075 3404.16
  4  -1159.099093082     -4.381794765     -0.007080692      0.001837781 3336.81
  5  -1159.101485650     -4.384187332     -0.002392567      0.000729539 3189.22
  6  -1159.102018630     -4.384720313     -0.000532981      0.000311187 3080.92
  7  -1159.102091652     -4.384793335     -0.000073022      0.000160568 3333.69
  8  -1159.102114502     -4.384816185     -0.000022850      0.000081003 3420.02
  9  -1159.102089270     -4.384790952      0.000025232      0.000050800 3554.76
 10  -1159.102090226     -4.384791909     -0.000000956      0.000037409 3399.84
 11  -1159.102087177     -4.384788860      0.000003049      0.000026170 3506.13
 12  -1159.102086142     -4.384787825      0.000001035      0.000017584 3435.71
 13  -1159.102084173     -4.384785856      0.000001969      0.000010714 3289.08
 14  -1159.102082851     -4.384784534      0.000001322      0.000005593 3383.09
               --- The Coupled-Cluster iterations have converged ---

----------------------
COUPLED CLUSTER ENERGY
----------------------

E(0)                                       ...  -1154.708910268
E(CORR)(strong-pairs)                      ...     -4.384784534
E(CORR)(weak-pairs)                        ...     -0.008388050
E(CORR)(corrected)                         ...     -4.393172584
E(TOT)                                     ...  -1159.102082851
Singles Norm <S|S>**1/2                    ...      0.159095511  
T1 diagnostic                              ...      0.014062189  

------------------
LARGEST AMPLITUDES
------------------
  64-> 87  64-> 87       0.061097
  71-> 87  71-> 87       0.060239
  70-> 87  70-> 87       0.053929
  63-> 87  63-> 87       0.053451
  61-> 87  61-> 87       0.050623
  64-> 87  63-> 87       0.049586
  71-> 87  70-> 87       0.048934
  60-> 87  60-> 87       0.047938
  61-> 87  60-> 87       0.041718
  42-> 87  42-> 87       0.038941
  75-> 89  75-> 89       0.038590
  84-> 87  84-> 87       0.037537
  76-> 88  76-> 88       0.037215
  80-> 87  80-> 87       0.036515
  40-> 87  40-> 87       0.034684
  83-> 87  83-> 87       0.033564


-------------------------------------------
DLPNO BASED TRIPLES CORRECTION
-------------------------------------------

Singles multiplier          ...  1.000000
TCutTNO                     ... 1.000e-09
TCutMP2Pairs                ... 1.000e-06
TCutDOStrong                ... 1.000e-02
TCutMKNStrong               ... 1.000e-02
TCutDOWeak                  ... 2.000e-02
TCutMKNWeak                 ... 1.000e-01

Fragment selection                          .... not used
Fock matrix occ-virt block is zero --> Setting DT_in_Triples to false.
Number of Triples that are to be computed   ...     23456

 . . . . . . . . .
10% done  
20% done  
30% done               (   2790.305 sec)
 . . . . . . . . .
40% done  
50% done  
60% done  
70% done  
80% done  
90% done               (   5889.980 sec)
Triples timings:
Total time for T0               ...  9688.667 sec
Total time for Iterative (T)    ...     0.000 sec
Total time of overall (T)       ...  9817.723 sec

Triples List generation         ...     0.000 sec
TNO generation                  ...  1007.979 sec
Pair density generation         ...     0.049 sec
Look up tables                  ...     0.000 sec
Generating 3-index integrals    ...  6103.250 sec
  Make 4-ind.int. from 3-ind.int...   181.179 sec
  Projecting amplitudes (D + S) ...  2200.774 sec
  Downprojecting integrals      ...     0.015 sec
  Energy contr. (sum over a,b,c)...    13.369 sec
Fitting ET(->0)                 ...     0.000 sec

Everything after 3-index        ...  2577.035 sec

Timing details:
 TNO integrals                  ...  6278.388 sec
   Reading 3-index integrals    ...    37.724 sec
   Sorting integrals            ...   493.297 sec
       Sorting integrals 1      ...     0.013 sec
       Sorting integrals 2      ...   472.419 sec
       Sorting integrals 3      ...     3.065 sec
       Sorting integrals 4      ...     0.573 sec
       Sorting integrals 5      ...     3.720 sec
       Sorting integrals 6      ...    13.508 sec
   Calculating local VM**-1/2   ...    12.355 sec
   Orthogonal. integrals        ...    21.635 sec
   Multipl. 3-index integrals   ...  5713.377 sec
   All concerning IRIab (w/TNO) ...   125.304 sec

 Calculate W0/W1                ...   181.651 sec
 W 3-ext contribution           ...   105.830 sec
 W 3-int contribution           ...    60.232 sec
 Sorting W                      ...    13.863 sec

 V exchange contribution        ...     3.904 sec

 Timings for Triples without generation
     of 3-index integrals       ...  2577.016 sec
       0 weak pairs             ...  1809.764 sec
       1 weak pair              ...   767.252 sec
       2 weak pairs             ...     0.000 sec
       3 weak pairs             ...     0.000 sec
  Extra time for extrapolation  ...     0.000 sec

Number of Triples   (0, 1, 2, 3 weak pairs; overall):  13701    9755       0       0  ( 23456)
Number of Atoms     (0, 1, 2, 3 weak pairs; overall):   25.2    24.0     0.0     0.0  (    43)
Number of PAOs      (0, 1, 2, 3 weak pairs; overall):  597.1   577.4     0.0     0.0  (   970)
Number of AuxFcns   (0, 1, 2, 3 weak pairs; overall):  516.6   385.5     0.0     0.0  (  2463)
Number of TNOs      (0, 1, 2, 3 weak pairs         ):   81.4    48.9     0.0     0.0
Aver. Number of NTNO, Atoms, PAOs, AuxFcns / Triples:  23456    67.9    24.7   588.9   462.1

Triples Correction (T)                     ...     -0.192477936
Final correlation energy                   ...     -4.585650520
E(CCSD)                                    ...  -1159.102082851
E(CCSD(T))                                 ...  -1159.294560788



--------------------------------------------------------------------------------
                                    TIMINGS
--------------------------------------------------------------------------------


Total execution time                   ...    68222.553 sec

Localization of occupied MO's          ...       19.437 sec (  0.0%)
Fock Matrix Formation                  ...      105.511 sec (  0.2%)
Global overlap, Fock, MKN matrices     ...      260.853 sec (  0.4%)
Differential overlap integrals         ...       76.056 sec (  0.1%)
Organizing maps                        ...        0.356 sec (  0.0%)
RI 3-index integral generations        ...      460.243 sec (  0.7%)
RI-PNO integral transformation         ...     3561.034 sec (  5.2%)
Initial Guess                          ...     3826.893 sec (  5.6%)
DIIS Solver                            ...      541.107 sec (  0.8%)
State Vector Update                    ...        0.139 sec (  0.0%)
Sigma-vector construction              ...    50071.132 sec ( 73.4%)
  <0|H|D>                              ...        0.003 sec (  0.0% of sigma)
  <D|H|D>(0-ext)                       ...    12507.589 sec ( 25.0% of sigma)
  <D|H|D>(2-ext Fock)                  ...        4.150 sec (  0.0% of sigma)
  <D|H|D>(2-ext)                       ...     1919.557 sec (  3.8% of sigma)
  <D|H|D>(4-ext)                       ...       68.156 sec (  0.1% of sigma)
  <D|H|D>(4-ext-corr)                  ...      377.017 sec (  0.8% of sigma)
  CCSD doubles correction              ...      848.721 sec (  1.7% of sigma)
  <S|H|S>                              ...       72.890 sec (  0.1% of sigma)
  <S|H|D>(1-ext)                       ...       45.794 sec (  0.1% of sigma)
  <D|H|S>(1-ext)                       ...        4.396 sec (  0.0% of sigma)
  <S|H|D>(3-ext)                       ...       26.998 sec (  0.1% of sigma)
  CCSD singles correction              ...        0.004 sec (  0.0% of sigma)
  Fock-dressing                        ...    14822.167 sec ( 29.6% of sigma)
  Singles amplitudes                   ...      306.776 sec (  0.6% of sigma)
  (ik|jl)-dressing                     ...    16471.919 sec ( 32.9% of sigma)
  (ij|ab),(ia|jb)-dressing             ...     2510.506 sec (  5.0% of sigma)
  Pair energies                        ...        0.044 sec (  0.0% of sigma)
Total Time for computing (T)           ...     9817.889 sec ( 14.4% of ALL)


Maximum memory used throughout the entire MDCI-calculation: 10152.6 MB

-------------------------   --------------------
FINAL SINGLE POINT ENERGY     -1159.294560787579
-------------------------   --------------------


                            ***************************************
                            *     ORCA property calculations      *
                            ***************************************


  WARNING: The energy has been calculated at the MDCI level but the densities
           used in the property calculations are still SCF densities
           MDCI response densities have not been calculated 
           use %mdci Density linearized end
           or  %mdci Density unrelaxed end
           or  %mdci Density orbopt end

                                    ---------------------
                                    Active property flags
                                    ---------------------
   (+) Dipole Moment


------------------------------------------------------------------------------
                       ORCA ELECTRIC PROPERTIES CALCULATION
------------------------------------------------------------------------------

Dipole Moment Calculation                       ... on
Quadrupole Moment Calculation                   ... off
Polarizability Calculation                      ... off
GBWName                                         ... input.gbw
Electron density                                ... input.scfp
The origin for moment calculation is the CENTER OF MASS  = (20.307346, 17.939391 17.236609)

-------------
DIPOLE MOMENT
-------------
                                X             Y             Z
Electronic contribution:     22.51110      -7.15478      -0.10479
Nuclear contribution   :    -31.67995      10.71941       5.06507
                        -----------------------------------------
Total Dipole Moment    :     -9.16885       3.56463       4.96028
                        -----------------------------------------
Magnitude (a.u.)       :     11.01720
Magnitude (Debye)      :     28.00350



--------------------
Rotational spectrum 
--------------------
 
Rotational constants in cm-1:     0.015407     0.005218     0.004956 
Rotational constants in MHz :   461.876169   156.420661   148.589882 

 Dipole components along the rotational axes: 
x,y,z [a.u.] :    10.146126    -3.578509     2.372578 
x,y,z [Debye]:    25.789402    -9.095846     6.030614 

 

Timings for individual modules:

Sum of individual times         ...    69581.168 sec (=1159.686 min)
GTO integral calculation        ...        6.825 sec (=   0.114 min)   0.0 %
SCF iterations                  ...     1347.802 sec (=  22.463 min)   1.9 %
MDCI module                     ...    68226.540 sec (=1137.109 min)  98.1 %
                             ****ORCA TERMINATED NORMALLY****
TOTAL RUN TIME: 0 days 19 hours 19 minutes 46 seconds 961 msec
