Loading orca/5.0.3
  Loading requirement: gcc-runtime/11.3.1-gcc-11.3.1-jw6fhud
    numactl/2.0.14-gcc-11.3.1-tqvsbcd openssh/8.7p1-gcc-11.3.1-ddo4kmk
    libiconv/1.17-gcc-11.3.1-h3jdn2x xz/5.4.1-gcc-11.3.1-y32p7p3
    zlib/1.2.13-gcc-11.3.1-dwcx77k libxml2/2.10.3-gcc-11.3.1-m4mk5ab
    cuda/11.8.0-gcc-11.3.1-i5witig libpciaccess/0.17-gcc-11.3.1-qksiqer
    ncurses/6.4-gcc-11.3.1-afnu276 hwloc/2.9.1-gcc-11.3.1-qedjm66
    openssl/3.1.2-gcc-11.3.1-mgoa6lt libevent/2.1.12-gcc-11.3.1-bpr3m74
    pmix/4.2.2-gcc-11.3.1-du4y5e7 slurm/22.05.6-gcc-11.3.1-atym2np
    libnl/3.3.0-gcc-11.3.1-gh3muw7 rdma-core/41.0-gcc-11.3.1-isp54jw
    ucx/1.14.1-gcc-11.3.1-o3wj4kz openmpi/4.1.2-gcc-11.3.1-fs7u3kb

                                 *****************
                                 * O   R   C   A *
                                 *****************

                                            #,                                       
                                            ###                                      
                                            ####                                     
                                            #####                                    
                                            ######                                   
                                           ########,                                 
                                     ,,################,,,,,                         
                               ,,#################################,,                 
                          ,,##########################################,,             
                       ,#########################################, ''#####,          
                    ,#############################################,,   '####,        
                  ,##################################################,,,,####,       
                ,###########''''           ''''###############################       
              ,#####''   ,,,,##########,,,,          '''####'''          '####       
            ,##' ,,,,###########################,,,                        '##       
           ' ,,###''''                  '''############,,,                           
         ,,##''                                '''############,,,,        ,,,,,,###''
      ,#''                                            '''#######################'''  
     '                                                          ''''####''''         
             ,#######,   #######,   ,#######,      ##                                
            ,#'     '#,  ##    ##  ,#'     '#,    #''#        ######   ,####,        
            ##       ##  ##   ,#'  ##            #'  '#       #        #'  '#        
            ##       ##  #######   ##           ,######,      #####,   #    #        
            '#,     ,#'  ##    ##  '#,     ,#' ,#      #,         ##   #,  ,#        
             '#######'   ##     ##  '#######'  #'      '#     #####' # '####'        



                  #######################################################
                  #                        -***-                        #
                  #          Department of theory and spectroscopy      #
                  #    Directorship and core code : Frank Neese         #
                  #        Max Planck Institute fuer Kohlenforschung    #
                  #                Kaiser Wilhelm Platz 1               #
                  #                 D-45470 Muelheim/Ruhr               #
                  #                      Germany                        #
                  #                                                     #
                  #                  All rights reserved                #
                  #                        -***-                        #
                  #######################################################


                         Program Version 5.0.3 -  RELEASE  -


 With contributions from (in alphabetic order):
   Daniel Aravena         : Magnetic Suceptibility
   Michael Atanasov       : Ab Initio Ligand Field Theory (pilot matlab implementation)
   Alexander A. Auer      : GIAO ZORA, VPT2 properties, NMR spectrum
   Ute Becker             : Parallelization
   Giovanni Bistoni       : ED, misc. LED, open-shell LED, HFLD
   Martin Brehm           : Molecular dynamics
   Dmytro Bykov           : SCF Hessian
   Vijay G. Chilkuri      : MRCI spin determinant printing, contributions to CSF-ICE
   Dipayan Datta          : RHF DLPNO-CCSD density
   Achintya Kumar Dutta   : EOM-CC, STEOM-CC
   Dmitry Ganyushin       : Spin-Orbit,Spin-Spin,Magnetic field MRCI
   Miquel Garcia          : C-PCM and meta-GGA Hessian, CC/C-PCM, Gaussian charge scheme
   Yang Guo               : DLPNO-NEVPT2, F12-NEVPT2, CIM, IAO-localization
   Andreas Hansen         : Spin unrestricted coupled pair/coupled cluster methods
   Benjamin Helmich-Paris : MC-RPA, TRAH-SCF, COSX integrals
   Lee Huntington         : MR-EOM, pCC
   Robert Izsak           : Overlap fitted RIJCOSX, COSX-SCS-MP3, EOM
   Marcus Kettner         : VPT2
   Christian Kollmar      : KDIIS, OOCD, Brueckner-CCSD(T), CCSD density, CASPT2, CASPT2-K
   Simone Kossmann        : Meta GGA functionals, TD-DFT gradient, OOMP2, MP2 Hessian
   Martin Krupicka        : Initial AUTO-CI
   Lucas Lang             : DCDCAS
   Marvin Lechner         : AUTO-CI (C++ implementation), FIC-MRCC
   Dagmar Lenk            : GEPOL surface, SMD
   Dimitrios Liakos       : Extrapolation schemes; Compound Job, initial MDCI parallelization
   Dimitrios Manganas     : Further ROCIS development; embedding schemes
   Dimitrios Pantazis     : SARC Basis sets
   Anastasios Papadopoulos: AUTO-CI, single reference methods and gradients
   Taras Petrenko         : DFT Hessian,TD-DFT gradient, ASA, ECA, R-Raman, ABS, FL, XAS/XES, NRVS
   Peter Pinski           : DLPNO-MP2, DLPNO-MP2 Gradient
   Christoph Reimann      : Effective Core Potentials
   Marius Retegan         : Local ZFS, SOC
   Christoph Riplinger    : Optimizer, TS searches, QM/MM, DLPNO-CCSD(T), (RO)-DLPNO pert. Triples
   Tobias Risthaus        : Range-separated hybrids, TD-DFT gradient, RPA, STAB
   Michael Roemelt        : Original ROCIS implementation
   Masaaki Saitow         : Open-shell DLPNO-CCSD energy and density
   Barbara Sandhoefer     : DKH picture change effects
   Avijit Sen             : IP-ROCIS
   Kantharuban Sivalingam : CASSCF convergence, NEVPT2, FIC-MRCI
   Bernardo de Souza      : ESD, SOC TD-DFT
   Georgi Stoychev        : AutoAux, RI-MP2 NMR, DLPNO-MP2 response
   Willem Van den Heuvel  : Paramagnetic NMR
   Boris Wezisla          : Elementary symmetry handling
   Frank Wennmohs         : Technical directorship


 We gratefully acknowledge several colleagues who have allowed us to
 interface, adapt or use parts of their codes:
   Stefan Grimme, W. Hujo, H. Kruse, P. Pracht,  : VdW corrections, initial TS optimization,
                  C. Bannwarth, S. Ehlert          DFT functionals, gCP, sTDA/sTD-DF
   Ed Valeev, F. Pavosevic, A. Kumar             : LibInt (2-el integral package), F12 methods
   Garnet Chan, S. Sharma, J. Yang, R. Olivares  : DMRG
   Ulf Ekstrom                                   : XCFun DFT Library
   Mihaly Kallay                                 : mrcc  (arbitrary order and MRCC methods)
   Jiri Pittner, Ondrej Demel                    : Mk-CCSD
   Frank Weinhold                                : gennbo (NPA and NBO analysis)
   Christopher J. Cramer and Donald G. Truhlar   : smd solvation model
   Lars Goerigk                                  : TD-DFT with DH, B97 family of functionals
   V. Asgeirsson, H. Jonsson                     : NEB implementation
   FAccTs GmbH                                   : IRC, NEB, NEB-TS, DLPNO-Multilevel, CI-OPT
                                                   MM, QMMM, 2- and 3-layer-ONIOM, Crystal-QMMM,
                                                   LR-CPCM, SF, NACMEs, symmetry and pop. for TD-DFT,
                                                   nearIR, NL-DFT gradient (VV10), updates on ESD,
                                                   ML-optimized integration grids
   S Lehtola, MJT Oliveira, MAL Marques          : LibXC Library
   Liviu Ungur et al                             : ANISO software


 Your calculation uses the libint2 library for the computation of 2-el integrals
 For citations please refer to: http://libint.valeyev.net

 Your ORCA version has been built with support for libXC version: 5.1.0
 For citations please refer to: https://tddft.org/programs/libxc/

 This ORCA versions uses:
   CBLAS   interface :  Fast vector & matrix operations
   LAPACKE interface :  Fast linear algebra routines
   SCALAPACK package :  Parallel linear algebra routines
   Shared memory     :  Shared parallel matrices
   BLAS/LAPACK       :  OpenBLAS 0.3.15  USE64BITINT DYNAMIC_ARCH NO_AFFINITY Prescott SINGLE_THREADED
        Core in use  :  Prescott
   Copyright (c) 2011-2014, The OpenBLAS Project


================================================================================

----- Orbital basis set information -----
Your calculation utilizes the basis: cc-pVTZ 
       H, B-Ne : Obtained from the ccRepo (grant-hill.group.shef.ac.uk/ccrepo) Feb. 2017
                 T. H. Dunning, Jr., J. Chem. Phys. 90, 1007 (1989)
            He : Obtained from the ccRepo (grant-hill.group.shef.ac.uk/ccrepo) Feb. 2017
                 D. E. Woon, T. H. Dunning, Jr., J. Chem. Phys. 100, 2975 (1994)
  Li-Be, Na-Mg : Obtained from the ccRepo (grant-hill.group.shef.ac.uk/ccrepo) Feb. 2017
                 B. P. Prascher, D. E. Woon, K. A. Peterson, T. H. Dunning, Jr., A. K. Wilson, Theor. Chem. Acc. 128, 69 (2011)
         Al-Ar : Obtained from the ccRepo (grant-hill.group.shef.ac.uk/ccrepo) Feb. 2017
                 D. E. Woon, T. H. Dunning, Jr., J. Chem. Phys. 98, 1358 (1993)
            Ca : Obtained from the Peterson Research Group Website (tyr0.chem.wsu.edu/~kipeters) Feb. 2017
                 J. Koput, K. A. Peterson, J. Phys. Chem. 106, 9595 (2002)
         Sc-Zn : Obtained from the ccRepo (grant-hill.group.shef.ac.uk/ccrepo) Feb. 2017
                 N. B. Balabanov, K. A. Peterson, J. Chem. Phys. 123, 064107 (2005)
                 N. B. Balabanov, K. A. Peterson, J. Chem. Phys. 125, 074110 (2006)
         Ga-Kr : Obtained from the ccRepo (grant-hill.group.shef.ac.uk/ccrepo) Feb. 2017
                 A. K. Wilson, D. E. Woon, K. A. Peterson, T. H. Dunning, Jr., J. Chem. Phys. 110, 7667 (1999)
             Y : Obtained from the ccRepo (grant-hill.group.shef.ac.uk/ccrepo) Feb. 2017
                 K. A. Peterson, D. Figgen, M. Dolg, H. Stoll, J. Chem. Phys. 126, 124101 (2007)
        Ag, Au : Obtained from the Peterson Research Group Website (tyr0.chem.wsu.edu/~kipeters) Feb. 2017
                 K. A. Peterson, C. Puzzarini, Theor. Chem. Acc. 114, 283 (2005)

----- AuxC basis set information -----
Your calculation utilizes the auxiliary basis: cc-pVTZ/C 
  Obtained from the EMSL Basis Set Exchange (bse.pnl.gov) Feb. 2017
  H-He, B-F, Al-Ar, Ga-Kr : F. Weigend, A. Kohn, C. Hattig, J. Chem. Phys. 116, 3175 (2002)
             Li-Be, Na-Mg : C. Haettig, Phys. Chem. Chem. Phys. 7, 59 (2005)
                       Ne : C. Haettig, Phys. Chem. Chem. Phys. 7, 59 (2005)
                            F. Weigend, A. Kohn, C. Hattig, J. Chem. Phys. 116, 3175 (2002)
                    Sc-Zn : J. G. Hill, J. A. Platts, J. Chem. Phys. 128, 044104 (2008)

================================================================================
                                        WARNINGS
                       Please study these warnings very carefully!
================================================================================


WARNING: Post HF methods need fully converged wavefunctions
  ===> : Setting SCFConvForced true
         You can overwrite this default with %scf ConvForced false 


WARNING: MDCI localization with Augmented Hessian Foster-Boys
  ===> : Switching off randomization!

INFO   : the flag for use of the SHARK integral package has been found!

================================================================================
                                       INPUT FILE
================================================================================
NAME = input
|  1> ! DLPNO-CCSD(T) cc-pVTZ cc-pVTZ/C TIGHTPNO TIGHTSCF
|  2> %maxcore 10000
|  3> %pal
|  4> nprocs 16
|  5> end
|  6> *xyz -1 1
|  7> H 4.319730507516 12.905778635742 8.257654231871
|  8> C 4.602216000000 11.906393000000 8.554016000000
|  9> H 5.202880000000 11.484091000000 7.739706000000
| 10> H 3.716107000000 11.272812000000 8.632558000000
| 11> C 5.374535000000 11.713732000000 9.838472000000
| 12> H 5.615493000000 10.650762000000 9.919743000000
| 13> H 4.735518000000 11.963729000000 10.689975000000
| 14> C 6.662520000000 12.513456000000 9.859035000000
| 15> H 6.508118000000 13.501719000000 10.295197000000
| 16> H 6.978814000000 12.677005000000 8.832674000000
| 17> N 7.789977000000 11.866852000000 10.492303000000
| 18> H 8.587029000000 11.666920000000 9.886104000000
| 19> C 8.027069000000 11.829394000000 11.789235000000
| 20> N 7.043658000000 12.078071000000 12.675072000000
| 21> H 6.104205000000 11.836510000000 12.419336000000
| 22> H 7.300140000000 11.941330000000 13.643250000000
| 23> N 9.237913000000 11.580247000000 12.225607000000
| 24> H 9.410530000000 11.609444000000 13.226423000000
| 25> H 10.008986000000 11.469178000000 11.578427000000
| 26> C 13.103913000000 10.148615000000 9.309915000000
| 27> H 13.657765000000 10.597925000000 10.133105000000
| 28> H 13.617501000000 10.429931000000 8.398170000000
| 29> C 11.735925000000 10.760207000000 9.435358000000
| 30> C 10.782943000000 11.132518000000 8.253336000000
| 31> O 11.189137000000 11.036712000000 7.078030000000
| 32> O 9.658436000000 11.553099000000 8.561375000000
| 33> O 11.338516000000 11.023444000000 10.540512000000
| 34> C 11.114618000000 8.063680000000 10.882661000000
| 35> H 10.553289000000 8.067617000000 11.804856000000
| 36> C 12.392416000000 8.394543000000 10.859876000000
| 37> H 12.905050000000 8.693909000000 11.759850000000
| 38> C 13.137361000000 8.595852000000 9.580044000000
| 39> C 12.500912000000 7.775738000000 8.489914000000
| 40> H 13.145861000000 7.447765000000 7.682626000000
| 41> C 11.235494000000 7.389036000000 8.524577000000
| 42> H 10.819502000000 6.782044000000 7.729158000000
| 43> C 10.326948000000 7.721023000000 9.659093000000
| 44> H 9.720061000000 8.597514000000 9.385103000000
| 45> O 9.468181000000 6.631410000000 9.884944000000
| 46> H 8.765731000000 6.923220000000 10.552644000000
| 47> C 14.661174000000 8.269068000000 9.656310000000
| 48> O 15.190670000000 8.167421000000 10.790049000000
| 49> O 15.269476000000 8.197447000000 8.578085000000
| 50> *
| 51> 
| 52>                          ****END OF INPUT****
================================================================================

                       ****************************
                       * Single Point Calculation *
                       ****************************

---------------------------------
CARTESIAN COORDINATES (ANGSTROEM)
---------------------------------
  H      4.319731   12.905779    8.257654
  C      4.602216   11.906393    8.554016
  H      5.202880   11.484091    7.739706
  H      3.716107   11.272812    8.632558
  C      5.374535   11.713732    9.838472
  H      5.615493   10.650762    9.919743
  H      4.735518   11.963729   10.689975
  C      6.662520   12.513456    9.859035
  H      6.508118   13.501719   10.295197
  H      6.978814   12.677005    8.832674
  N      7.789977   11.866852   10.492303
  H      8.587029   11.666920    9.886104
  C      8.027069   11.829394   11.789235
  N      7.043658   12.078071   12.675072
  H      6.104205   11.836510   12.419336
  H      7.300140   11.941330   13.643250
  N      9.237913   11.580247   12.225607
  H      9.410530   11.609444   13.226423
  H     10.008986   11.469178   11.578427
  C     13.103913   10.148615    9.309915
  H     13.657765   10.597925   10.133105
  H     13.617501   10.429931    8.398170
  C     11.735925   10.760207    9.435358
  C     10.782943   11.132518    8.253336
  O     11.189137   11.036712    7.078030
  O      9.658436   11.553099    8.561375
  O     11.338516   11.023444   10.540512
  C     11.114618    8.063680   10.882661
  H     10.553289    8.067617   11.804856
  C     12.392416    8.394543   10.859876
  H     12.905050    8.693909   11.759850
  C     13.137361    8.595852    9.580044
  C     12.500912    7.775738    8.489914
  H     13.145861    7.447765    7.682626
  C     11.235494    7.389036    8.524577
  H     10.819502    6.782044    7.729158
  C     10.326948    7.721023    9.659093
  H      9.720061    8.597514    9.385103
  O      9.468181    6.631410    9.884944
  H      8.765731    6.923220   10.552644
  C     14.661174    8.269068    9.656310
  O     15.190670    8.167421   10.790049
  O     15.269476    8.197447    8.578085

----------------------------
CARTESIAN COORDINATES (A.U.)
----------------------------
  NO LB      ZA    FRAG     MASS         X           Y           Z
   0 H     1.0000    0     1.008    8.163108   24.388387   15.604705
   1 C     6.0000    0    12.011    8.696928   22.499822   16.164748
   2 H     1.0000    0     1.008    9.832018   21.701787   14.625925
   3 H     1.0000    0     1.008    7.022425   21.302527   16.313170
   4 C     6.0000    0    12.011   10.156399   22.135745   18.592018
   5 H     1.0000    0     1.008   10.611744   20.127023   18.745598
   6 H     1.0000    0     1.008    8.948832   22.608171   20.201125
   7 C     6.0000    0    12.011   12.590338   23.647005   18.630876
   8 H     1.0000    0     1.008   12.298561   25.514551   19.455103
   9 H     1.0000    0     1.008   13.188047   23.956068   16.691335
  10 N     7.0000    0    14.007   14.720923   22.425100   19.827579
  11 H     1.0000    0     1.008   16.227133   22.047284   18.682029
  12 C     6.0000    0    12.011   15.168962   22.354315   22.278425
  13 N     7.0000    0    14.007   13.310585   22.824246   23.952415
  14 H     1.0000    0     1.008   11.535276   22.367762   23.469144
  15 H     1.0000    0     1.008   13.795265   22.565843   25.782006
  16 N     7.0000    0    14.007   17.457126   21.883495   23.103049
  17 H     1.0000    0     1.008   17.783324   21.938670   24.994317
  18 H     1.0000    0     1.008   18.914242   21.673605   21.880056
  19 C     6.0000    0    12.011   24.762807   19.178103   17.593190
  20 H     1.0000    0     1.008   25.809435   20.027176   19.148793
  21 H     1.0000    0     1.008   25.733348   19.709713   15.870241
  22 C     6.0000    0    12.011   22.177684   20.333844   17.830243
  23 C     6.0000    0    12.011   20.376809   21.037410   15.596545
  24 O     8.0000    0    15.999   21.144405   20.856363   13.375538
  25 O     8.0000    0    15.999   18.251799   21.832193   16.178654
  26 O     8.0000    0    15.999   21.426690   20.831290   19.918681
  27 C     6.0000    0    12.011   21.003584   15.238147   20.565249
  28 H     1.0000    0     1.008   19.942826   15.245587   22.307945
  29 C     6.0000    0    12.011   23.418272   15.863387   20.522191
  30 H     1.0000    0     1.008   24.387010   16.429107   22.222896
  31 C     6.0000    0    12.011   24.826014   16.243806   18.103660
  32 C     6.0000    0    12.011   23.623300   14.694015   16.043612
  33 H     1.0000    0     1.008   24.842077   14.074236   14.518059
  34 C     6.0000    0    12.011   21.232007   13.963254   16.109116
  35 H     1.0000    0     1.008   20.445896   12.816206   14.605992
  36 C     6.0000    0    12.011   19.515104   14.590619   18.253040
  37 H     1.0000    0     1.008   18.368253   16.246947   17.735274
  38 O     8.0000    0    15.999   17.892269   12.531549   18.679837
  39 H     1.0000    0     1.008   16.564831   13.082990   19.941607
  40 C     6.0000    0    12.011   27.705604   15.626274   18.247781
  41 O     8.0000    0    15.999   28.706206   15.434189   20.390238
  42 O     8.0000    0    15.999   28.855128   15.490930   16.210231

--------------------------------
INTERNAL COORDINATES (ANGSTROEM)
--------------------------------
 H      0   0   0     0.000000000000     0.00000000     0.00000000
 C      1   0   0     1.080000000000     0.00000000     0.00000000
 H      2   1   0     1.096465684005   107.21107428     0.00000000
 H      2   1   3     1.092146001781   110.14154010   245.18825153
 C      2   1   3     1.511099637555   119.00690074   122.24075093
 H      5   2   1     1.092964296812   107.45050968   183.65455796
 H      5   2   1     1.093571481572   109.51523482    67.70664644
 C      5   2   1     1.516207991461   112.23742108   303.40506720
 H      8   5   2     1.091210806864   111.27914559    90.97157163
 H      8   5   2     1.086373357625   108.29533289   334.35277117
 N      8   5   2     1.445781580838   115.62571812   217.26094328
 H     11   8   5     1.021147356129   115.86364971   116.58345982
 C     11   8   5     1.318957289245   125.70252448   277.95539141
 N     13  11   8     1.346716241760   120.68270579    18.64780401
 H     14  13  11     1.003157294559   118.14497462    30.57548057
 H     14  13  11     1.010865845248   114.81833665   174.54213697
 N     13  11   8     1.310968322397   119.91598024   200.32977781
 H     17  13  11     1.016012676768   118.64250516   176.47959076
 H     17  13  11     1.012784205293   120.75262320     3.62599321
 C     19  17  13     4.058153085634   166.78670395   245.20628258
 H     20  19  17     1.089161737348    80.27492680   264.03992338
 H     20  19  17     1.083600604755   138.35971058   159.75621781
 C     20  19  17     1.503719351760    29.21568215   122.01850321
 C     23  20  19     1.563318963465   126.04015516   183.89080502
 O     24  23  20     1.247203491379   119.71483553   353.51219892
 O     24  23  20     1.239472628230   116.48412421   175.71040937
 O     23  20  19     1.203575089127   117.77113735     5.87295827
 C     27  23  20     2.987875363582    85.02256011   288.84610369
 H     28  27  23     1.079606115319    97.65255651   191.25280982
 C     28  27  23     1.320135299808    71.16894058    70.89332826
 H     30  28  27     1.078131170400   121.02550689    86.55530731
 C     30  28  27     1.494469241815   122.07459324   276.97926622
 C     32  30  28     1.505336414061   109.63539492   333.09883976
 H     33  32  30     1.084084598301   116.90839897   208.01799698
 C     33  32  30     1.323639934082   122.98356273    24.08676226
 H     35  33  32     1.083595873787   120.75995801   181.24514313
 C     35  33  32     1.490905012582   122.51093408   359.34443550
 H     37  35  33     1.100735583122   108.89793298    98.20545472
 O     37  35  33     1.405612295144   108.78187683   216.50843176
 H     39  37  35     1.012132584497   107.84988963   188.85065111
 C     32  30  28     1.560323794724   114.62858940   209.46358764
 O     41  32  30     1.255413177701   118.22916648   344.33472856
 O     41  32  30     1.240052434968   116.65795657   167.91291490

---------------------------
INTERNAL COORDINATES (A.U.)
---------------------------
 H      0   0   0     0.000000000000     0.00000000     0.00000000
 C      1   0   0     2.040904224635     0.00000000     0.00000000
 H      2   1   0     2.072019858012   107.21107428     0.00000000
 H      2   1   3     2.063856841623   110.14154010   245.18825153
 C      2   1   3     2.855564476046   119.00690074   122.24075093
 H      5   2   1     2.065403195128   107.45050968   183.65455796
 H      5   2   1     2.066550608037   109.51523482    67.70664644
 C      5   2   1     2.865217865924   112.23742108   303.40506720
 H      8   5   2     2.062089579348   111.27914559    90.97157163
 H      8   5   2     2.052948125100   108.29533289   334.35277117
 N      8   5   2     2.732131237251   115.62571812   217.26094328
 H     11   8   5     1.929688845461   115.86364971   116.58345982
 C     11   8   5     2.492468059012   125.70252448   277.95539141
 N     13  11   8     2.544924877029   120.68270579    18.64780401
 H     14  13  11     1.895692555961   118.14497462    30.57548057
 H     14  13  11     1.910259605654   114.81833665   174.54213697
 N     13  11   8     2.477371099577   119.91598024   200.32977781
 H     17  13  11     1.919985707684   118.64250516   176.47959076
 H     17  13  11     1.913884780764   120.75262320     3.62599321
 C     19  17  13     7.668797941376   166.78670395   245.20628258
 H     20  19  17     2.058217399135    80.27492680   264.03992338
 H     20  19  17     2.047708381538   138.35971058   159.75621781
 C     20  19  17     2.841617757104    29.21568215   122.01850321
 C     23  20  19     2.954244700914   126.04015516   183.89080502
 O     24  23  20     2.356873031977   119.71483553   353.51219892
 O     24  23  20     2.342263817846   116.48412421   175.71040937
 O     23  20  19     2.274427300059   117.77113735     5.87295827
 C     27  23  20     5.646266159461    85.02256011   288.84610369
 H     28  27  23     2.040159890460    97.65255651   191.25280982
 C     28  27  23     2.494694176358    71.16894058    70.89332826
 H     30  28  27     2.037372648500   121.02550689    86.55530731
 C     30  28  27     2.824137582599   122.07459324   276.97926622
 C     32  30  28     2.844673561994   109.63539492   333.09883976
 H     33  32  30     2.048622996791   116.90839897   208.01799698
 C     33  32  30     2.501316975337   122.98356273    24.08676226
 H     35  33  32     2.047699441305   120.75995801   181.24514313
 C     35  33  32     2.817402165470   122.51093408   359.34443550
 H     37  35  33     2.080088797962   108.89793298    98.20545472
 O     37  35  33     2.656222288294   108.78187683   216.50843176
 H     39  37  35     1.912653395917   107.84988963   188.85065111
 C     32  30  28     2.948584652269   114.62858940   209.46358764
 O     41  32  30     2.372387090771   118.22916648   344.33472856
 O     41  32  30     2.343359493792   116.65795657   167.91291490

---------------------
BASIS SET INFORMATION
---------------------
There are 4 groups of distinct atoms

 Group   1 Type H   : 5s2p1d contracted to 3s2p1d pattern {311/11/1}
 Group   2 Type C   : 18s5p2d1f contracted to 4s3p2d1f pattern {8811/311/11/1}
 Group   3 Type N   : 18s5p2d1f contracted to 4s3p2d1f pattern {8811/311/11/1}
 Group   4 Type O   : 18s5p2d1f contracted to 4s3p2d1f pattern {8811/311/11/1}

Atom   0H    basis set group =>   1
Atom   1C    basis set group =>   2
Atom   2H    basis set group =>   1
Atom   3H    basis set group =>   1
Atom   4C    basis set group =>   2
Atom   5H    basis set group =>   1
Atom   6H    basis set group =>   1
Atom   7C    basis set group =>   2
Atom   8H    basis set group =>   1
Atom   9H    basis set group =>   1
Atom  10N    basis set group =>   3
Atom  11H    basis set group =>   1
Atom  12C    basis set group =>   2
Atom  13N    basis set group =>   3
Atom  14H    basis set group =>   1
Atom  15H    basis set group =>   1
Atom  16N    basis set group =>   3
Atom  17H    basis set group =>   1
Atom  18H    basis set group =>   1
Atom  19C    basis set group =>   2
Atom  20H    basis set group =>   1
Atom  21H    basis set group =>   1
Atom  22C    basis set group =>   2
Atom  23C    basis set group =>   2
Atom  24O    basis set group =>   4
Atom  25O    basis set group =>   4
Atom  26O    basis set group =>   4
Atom  27C    basis set group =>   2
Atom  28H    basis set group =>   1
Atom  29C    basis set group =>   2
Atom  30H    basis set group =>   1
Atom  31C    basis set group =>   2
Atom  32C    basis set group =>   2
Atom  33H    basis set group =>   1
Atom  34C    basis set group =>   2
Atom  35H    basis set group =>   1
Atom  36C    basis set group =>   2
Atom  37H    basis set group =>   1
Atom  38O    basis set group =>   4
Atom  39H    basis set group =>   1
Atom  40C    basis set group =>   2
Atom  41O    basis set group =>   4
Atom  42O    basis set group =>   4
---------------------------------
AUXILIARY/C BASIS SET INFORMATION
---------------------------------
There are 4 groups of distinct atoms

 Group   1 Type H   : 4s3p2d1f contracted to 4s3p2d1f pattern {1111/111/11/1}
 Group   2 Type C   : 8s6p5d3f1g contracted to 8s6p5d3f1g pattern {11111111/111111/11111/111/1}
 Group   3 Type N   : 8s6p5d3f1g contracted to 8s6p5d3f1g pattern {11111111/111111/11111/111/1}
 Group   4 Type O   : 8s6p5d3f1g contracted to 8s6p5d3f1g pattern {11111111/111111/11111/111/1}

Atom   0H    basis set group =>   1
Atom   1C    basis set group =>   2
Atom   2H    basis set group =>   1
Atom   3H    basis set group =>   1
Atom   4C    basis set group =>   2
Atom   5H    basis set group =>   1
Atom   6H    basis set group =>   1
Atom   7C    basis set group =>   2
Atom   8H    basis set group =>   1
Atom   9H    basis set group =>   1
Atom  10N    basis set group =>   3
Atom  11H    basis set group =>   1
Atom  12C    basis set group =>   2
Atom  13N    basis set group =>   3
Atom  14H    basis set group =>   1
Atom  15H    basis set group =>   1
Atom  16N    basis set group =>   3
Atom  17H    basis set group =>   1
Atom  18H    basis set group =>   1
Atom  19C    basis set group =>   2
Atom  20H    basis set group =>   1
Atom  21H    basis set group =>   1
Atom  22C    basis set group =>   2
Atom  23C    basis set group =>   2
Atom  24O    basis set group =>   4
Atom  25O    basis set group =>   4
Atom  26O    basis set group =>   4
Atom  27C    basis set group =>   2
Atom  28H    basis set group =>   1
Atom  29C    basis set group =>   2
Atom  30H    basis set group =>   1
Atom  31C    basis set group =>   2
Atom  32C    basis set group =>   2
Atom  33H    basis set group =>   1
Atom  34C    basis set group =>   2
Atom  35H    basis set group =>   1
Atom  36C    basis set group =>   2
Atom  37H    basis set group =>   1
Atom  38O    basis set group =>   4
Atom  39H    basis set group =>   1
Atom  40C    basis set group =>   2
Atom  41O    basis set group =>   4
Atom  42O    basis set group =>   4


           ************************************************************
           *        Program running with 16 parallel MPI-processes    *
           *              working on a common directory               *
           ************************************************************
------------------------------------------------------------------------------
                           ORCA GTO INTEGRAL CALCULATION
------------------------------------------------------------------------------
------------------------------------------------------------------------------
                   ___                                                        
                  /   \      - P O W E R E D   B Y -                         
                 /     \                                                     
                 |  |  |   _    _      __       _____    __    __             
                 |  |  |  | |  | |    /  \     |  _  \  |  |  /  |          
                  \  \/   | |  | |   /    \    | | | |  |  | /  /          
                 / \  \   | |__| |  /  /\  \   | |_| |  |  |/  /          
                |  |  |   |  __  | /  /__\  \  |    /   |      \           
                |  |  |   | |  | | |   __   |  |    \   |  |\   \          
                \     /   | |  | | |  |  |  |  | |\  \  |  | \   \       
                 \___/    |_|  |_| |__|  |__|  |_| \__\ |__|  \__/        
                                                                              
                      - O R C A' S   B I G   F R I E N D -                    
                                      &                                       
                       - I N T E G R A L  F E E D E R -                       
                                                                              
 v1 FN, 2020, v2 2021                                                         
------------------------------------------------------------------------------


Reading SHARK input file input.SHARKINP.tmp ... ok
----------------------
SHARK INTEGRAL PACKAGE
----------------------

Number of atoms                             ...     43
Number of basis functions                   ...   1108
Number of shells                            ...    488
Maximum angular momentum                    ...      3
Integral batch strategy                     ... SHARK/LIBINT Hybrid
RI-J (if used) integral strategy            ... SPLIT-RIJ (Revised 2003 algorithm where possible)
Printlevel                                  ...      1
Contraction scheme used                     ... PARTIAL GENERAL contraction
Coulomb Range Separation                    ... NOT USED
Exchange Range Separation                   ... NOT USED
Finite Nucleus Model                        ... NOT USED
Auxiliary Coulomb fitting basis             ... NOT available
Auxiliary J/K fitting basis                 ... NOT available
Auxiliary Correlation fitting basis         ... AVAILABLE
   # of basis functions in Aux-C            ...   2463
   # of shells in Aux-C                     ...    729
   Maximum angular momentum in Aux-C        ...      4
Auxiliary 'external' fitting basis          ... NOT available
Integral threshold                          ...     2.500000e-11
Primitive cut-off                           ...     2.500000e-12
Primitive pair pre-selection threshold      ...     2.500000e-12

Calculating pre-screening integrals         ... done (  0.1 sec) Dimension = 488
Calculating pre-screening integrals (ORCA)  ... done (  0.2 sec) Dimension = 350
Organizing shell pair data                  ... done (  0.6 sec)
Shell pair information
Total number of shell pairs                 ...    119316
Shell pairs after pre-screening             ...     57089
Total number of primitive shell pairs       ...    165154
Primitive shell pairs kept                  ...     69344
          la=0 lb=0:  16774 shell pairs
          la=1 lb=0:  16869 shell pairs
          la=1 lb=1:   3946 shell pairs
          la=2 lb=0:   8689 shell pairs
          la=2 lb=1:   4259 shell pairs
          la=2 lb=2:   1160 shell pairs
          la=3 lb=0:   2992 shell pairs
          la=3 lb=1:   1463 shell pairs
          la=3 lb=2:    786 shell pairs
          la=3 lb=3:    151 shell pairs

Calculating one electron integrals          ... done (  0.2 sec)
Calculating RI/C V-Matrix + Cholesky decomp.... done (  0.4 sec)
Calculating Nuclear repulsion               ... done (  0.0 sec) ENN=   2018.381565568929 Eh

SHARK setup successfully completed in   2.2 seconds

Maximum memory used throughout the entire GTOINT-calculation: 79.8 MB


           ************************************************************
           *        Program running with 16 parallel MPI-processes    *
           *              working on a common directory               *
           ************************************************************
-------------------------------------------------------------------------------
                                 ORCA SCF
-------------------------------------------------------------------------------

------------
SCF SETTINGS
------------
Hamiltonian:
 Ab initio Hamiltonian  Method          .... Hartree-Fock(GTOs)


General Settings:
 Integral files         IntName         .... input
 Hartree-Fock type      HFTyp           .... RHF
 Total Charge           Charge          ....   -1
 Multiplicity           Mult            ....    1
 Number of Electrons    NEL             ....  174
 Basis Dimension        Dim             ....  970
 Nuclear Repulsion      ENuc            ....   2018.3815655689 Eh

Convergence Acceleration:
 DIIS                   CNVDIIS         .... on
   Start iteration      DIISMaxIt       ....    12
   Startup error        DIISStart       ....  0.200000
   # of expansion vecs  DIISMaxEq       ....     5
   Bias factor          DIISBfac        ....   1.050
   Max. coefficient     DIISMaxC        ....  10.000
 Trust-Rad. Augm. Hess. CNVTRAH         .... auto
   Auto Start mean grad. ratio tolernc. ....  1.125000
   Auto Start start iteration           ....    20
   Auto Start num. interpolation iter.  ....    10
   Max. Number of Micro iterations      ....    16
   Max. Number of Macro iterations      .... Maxiter - #DIIS iter
   Number of Davidson start vectors     ....     2
   Converg. threshold I  (grad. norm)   ....   1.000e-05
   Converg. threshold II (energy diff.) ....   1.000e-08
   Grad. Scal. Fac. for Micro threshold ....   0.100
   Minimum threshold for Micro iter.    ....   0.010
   NR start threshold (gradient norm)   ....   0.001
   Initial trust radius                 ....   0.400
   Minimum AH scaling param. (alpha)    ....   1.000
   Maximum AH scaling param. (alpha)    .... 1000.000
   Orbital update algorithm             .... Taylor
   White noise on init. David. guess    .... on
   Maximum white noise                  ....   0.010
   Quad. conv. algorithm                .... NR
 SOSCF                  CNVSOSCF        .... on
   Start iteration      SOSCFMaxIt      ....   150
   Startup grad/error   SOSCFStart      ....  0.003300
 Level Shifting         CNVShift        .... on
   Level shift para.    LevelShift      ....    0.2500
   Turn off err/grad.   ShiftErr        ....    0.0010
 Zerner damping         CNVZerner       .... off
 Static damping         CNVDamp         .... on
   Fraction old density DampFac         ....    0.7000
   Max. Damping (<1)    DampMax         ....    0.9800
   Min. Damping (>=0)   DampMin         ....    0.0000
   Turn off err/grad.   DampErr         ....    0.1000
 Fernandez-Rico         CNVRico         .... off

SCF Procedure:
 Maximum # iterations   MaxIter         ....   125
 SCF integral mode      SCFMode         .... Direct
   Integral package                     .... SHARK and LIBINT hybrid scheme
 Reset frequency        DirectResetFreq ....    20
 Integral Threshold     Thresh          ....  2.500e-11 Eh
 Primitive CutOff       TCut            ....  2.500e-12 Eh

Convergence Tolerance:
 Convergence Check Mode ConvCheckMode   .... Total+1el-Energy
 Convergence forced     ConvForced      .... 1
 Energy Change          TolE            ....  1.000e-08 Eh
 1-El. energy change                    ....  1.000e-05 Eh
 Orbital Gradient       TolG            ....  1.000e-05
 Orbital Rotation angle TolX            ....  1.000e-05
 DIIS Error             TolErr          ....  5.000e-07


Diagonalization of the overlap matrix:
Smallest eigenvalue                        ... 4.925e-05
Time for diagonalization                   ...    0.562 sec
Threshold for overlap eigenvalues          ... 1.000e-08
Number of eigenvalues below threshold      ... 0
Time for construction of square roots      ...    0.697 sec
Total time needed                          ...    1.264 sec

Time for model grid setup =    0.484 sec

------------------------------
INITIAL GUESS: MODEL POTENTIAL
------------------------------
Loading Hartree-Fock densities                     ... done
Calculating cut-offs                               ... done
Initializing the effective Hamiltonian             ... done
Setting up the integral package (SHARK)            ... done
Starting the Coulomb interaction                   ... done (   0.5 sec)
Reading the grid                                   ... done
Mapping shells                                     ... done
Starting the XC term evaluation                    ... done (   0.2 sec)
Transforming the Hamiltonian                       ... done (   0.6 sec)
Diagonalizing the Hamiltonian                      ... done (   0.6 sec)
Back transforming the eigenvectors                 ... done (   0.2 sec)
Now organizing SCF variables                       ... done
                      ------------------
                      INITIAL GUESS DONE (   2.8 sec)
                      ------------------
--------------
SCF ITERATIONS
--------------
ITER       Energy         Delta-E        Max-DP      RMS-DP      [F,P]     Damp
               ***  Starting incremental Fock matrix formation  ***
  0  -1153.5236206617   0.000000000000 0.11501573  0.00059641  0.3631133 0.7000
  1  -1153.9460172751  -0.422396613399 0.11265026  0.00052480  0.2209745 0.7000
                               ***Turning on DIIS***
  2  -1154.1960432332  -0.250025958086 0.06560049  0.00032806  0.1244806 0.7000
  3  -1156.8692440201  -2.673200786965 0.06315350  0.00054440  0.0834042 0.0000
  4  -1154.5970234965   2.272220523589 0.03474011  0.00013719  0.0096209 0.0000
  5  -1154.7428916131  -0.145868116585 0.01062738  0.00005786  0.0043831 0.0000
                      *** Initiating the SOSCF procedure ***
                           *** Shutting down DIIS ***
                      *** Re-Reading the Fockian *** 
                      *** Removing any level shift *** 
ITER      Energy       Delta-E        Grad      Rot      Max-DP    RMS-DP
  6  -1154.70891440   0.0339772101  0.000796  0.000796  0.004571  0.000028
               *** Restarting incremental Fock matrix formation ***
  7  -1154.71783047  -0.0089160626  0.000410  0.000978  0.002097  0.000015
  8  -1154.71785557  -0.0000251044  0.000189  0.000865  0.001338  0.000012
  9  -1154.71786341  -0.0000078434  0.000062  0.000165  0.000405  0.000003
 10  -1154.71786406  -0.0000006434  0.000021  0.000052  0.000157  0.000001
 11  -1154.71786414  -0.0000000804  0.000012  0.000045  0.000056  0.000000
 12  -1154.71786416  -0.0000000179  0.000003  0.000009  0.000039  0.000000
                  ***Gradient check signals convergence***
              ***Rediagonalizing the Fockian in SOSCF/NRSCF***

               *****************************************************
               *                     SUCCESS                       *
               *           SCF CONVERGED AFTER  13 CYCLES          *
               *****************************************************


----------------
TOTAL SCF ENERGY
----------------

Total Energy       :        -1154.71786416 Eh          -31421.47052 eV

Components:
Nuclear Repulsion  :         2018.38156557 Eh           54922.95463 eV
Electronic Energy  :        -3173.09942973 Eh          -86344.42515 eV
One Electron Energy:        -5616.94826467 Eh         -152844.93277 eV
Two Electron Energy:         2443.84883494 Eh           66500.50762 eV

Virial components:
Potential Energy   :        -2308.54352699 Eh          -62818.66301 eV
Kinetic Energy     :         1153.82566283 Eh           31397.19249 eV
Virial Ratio       :            2.00077325


---------------
SCF CONVERGENCE
---------------

  Last Energy change         ...   -5.2819e-09  Tolerance :   1.0000e-08
  Last MAX-Density change    ...    1.3128e-05  Tolerance :   1.0000e-07
  Last RMS-Density change    ...    6.9330e-08  Tolerance :   5.0000e-09
  Last Orbital Gradient      ...    8.3447e-07  Tolerance :   1.0000e-05
  Last Orbital Rotation      ...    2.4194e-06  Tolerance :   1.0000e-05

             **** THE GBW FILE WAS UPDATED (input.gbw) ****
             **** DENSITY input.scfp WAS UPDATED ****
             **** ENERGY FILE WAS UPDATED (input.en.tmp) ****
             **** THE GBW FILE WAS UPDATED (input.gbw) ****
             **** DENSITY input.scfp WAS UPDATED ****
----------------
ORBITAL ENERGIES
----------------

  NO   OCC          E(Eh)            E(eV) 
   0   2.0000     -20.450170      -556.4774 
   1   2.0000     -20.437325      -556.1279 
   2   2.0000     -20.361874      -554.0748 
   3   2.0000     -20.346176      -553.6476 
   4   2.0000     -20.290177      -552.1238 
   5   2.0000     -20.288943      -552.0902 
   6   2.0000     -15.582074      -424.0098 
   7   2.0000     -15.550047      -423.1383 
   8   2.0000     -15.534951      -422.7275 
   9   2.0000     -11.359066      -309.0959 
  10   2.0000     -11.222167      -305.3707 
  11   2.0000     -11.207427      -304.9696 
  12   2.0000     -11.196590      -304.6747 
  13   2.0000     -11.191175      -304.5274 
  14   2.0000     -11.176278      -304.1220 
  15   2.0000     -11.157976      -303.6240 
  16   2.0000     -11.138511      -303.0943 
  17   2.0000     -11.099715      -302.0386 
  18   2.0000     -11.096246      -301.9442 
  19   2.0000     -11.088940      -301.7454 
  20   2.0000     -11.084530      -301.6254 
  21   2.0000     -11.083484      -301.5969 
  22   2.0000     -11.079911      -301.4997 
  23   2.0000      -1.323990       -36.0276 
  24   2.0000      -1.297018       -35.2936 
  25   2.0000      -1.248918       -33.9848 
  26   2.0000      -1.240810       -33.7642 
  27   2.0000      -1.185543       -32.2603 
  28   2.0000      -1.180985       -32.1362 
  29   2.0000      -1.172859       -31.9151 
  30   2.0000      -1.132030       -30.8041 
  31   2.0000      -1.070296       -29.1242 
  32   2.0000      -1.028244       -27.9799 
  33   2.0000      -1.002824       -27.2882 
  34   2.0000      -0.909623       -24.7521 
  35   2.0000      -0.907558       -24.6959 
  36   2.0000      -0.883037       -24.0286 
  37   2.0000      -0.828570       -22.5465 
  38   2.0000      -0.820748       -22.3337 
  39   2.0000      -0.788810       -21.4646 
  40   2.0000      -0.751689       -20.4545 
  41   2.0000      -0.737508       -20.0686 
  42   2.0000      -0.715088       -19.4585 
  43   2.0000      -0.700984       -19.0747 
  44   2.0000      -0.671027       -18.2596 
  45   2.0000      -0.658707       -17.9243 
  46   2.0000      -0.642727       -17.4895 
  47   2.0000      -0.613532       -16.6951 
  48   2.0000      -0.600206       -16.3324 
  49   2.0000      -0.590335       -16.0638 
  50   2.0000      -0.579555       -15.7705 
  51   2.0000      -0.570211       -15.5162 
  52   2.0000      -0.560847       -15.2614 
  53   2.0000      -0.551879       -15.0174 
  54   2.0000      -0.542326       -14.7574 
  55   2.0000      -0.530333       -14.4311 
  56   2.0000      -0.505863       -13.7652 
  57   2.0000      -0.505436       -13.7536 
  58   2.0000      -0.497257       -13.5311 
  59   2.0000      -0.493860       -13.4386 
  60   2.0000      -0.471856       -12.8399 
  61   2.0000      -0.465477       -12.6663 
  62   2.0000      -0.464496       -12.6396 
  63   2.0000      -0.451343       -12.2817 
  64   2.0000      -0.449071       -12.2198 
  65   2.0000      -0.447139       -12.1673 
  66   2.0000      -0.440081       -11.9752 
  67   2.0000      -0.434180       -11.8146 
  68   2.0000      -0.417464       -11.3598 
  69   2.0000      -0.416787       -11.3414 
  70   2.0000      -0.405115       -11.0237 
  71   2.0000      -0.400136       -10.8882 
  72   2.0000      -0.383055       -10.4235 
  73   2.0000      -0.380131       -10.3439 
  74   2.0000      -0.357328        -9.7234 
  75   2.0000      -0.354075        -9.6349 
  76   2.0000      -0.343436        -9.3454 
  77   2.0000      -0.332745        -9.0545 
  78   2.0000      -0.303200        -8.2505 
  79   2.0000      -0.280396        -7.6300 
  80   2.0000      -0.256978        -6.9927 
  81   2.0000      -0.252983        -6.8840 
  82   2.0000      -0.239239        -6.5100 
  83   2.0000      -0.221226        -6.0199 
  84   2.0000      -0.207125        -5.6362 
  85   2.0000      -0.194899        -5.3035 
  86   2.0000      -0.190456        -5.1826 
  87   0.0000       0.142714         3.8834 
  88   0.0000       0.171037         4.6541 
  89   0.0000       0.196406         5.3445 
  90   0.0000       0.204729         5.5710 
  91   0.0000       0.217431         5.9166 
  92   0.0000       0.223337         6.0773 
  93   0.0000       0.229181         6.2363 
  94   0.0000       0.234833         6.3901 
  95   0.0000       0.252647         6.8749 
  96   0.0000       0.261924         7.1273 
  97   0.0000       0.271695         7.3932 
  98   0.0000       0.273544         7.4435 
  99   0.0000       0.285307         7.7636 
 100   0.0000       0.294736         8.0202 
 101   0.0000       0.296789         8.0760 
 102   0.0000       0.304041         8.2734 
 103   0.0000       0.305809         8.3215 
 104   0.0000       0.318574         8.6688 
 105   0.0000       0.330383         8.9902 
 106   0.0000       0.355634         9.6773 
 107   0.0000       0.360282         9.8038 
 108   0.0000       0.364344         9.9143 
 109   0.0000       0.370836        10.0910 
 110   0.0000       0.373548        10.1647 
 111   0.0000       0.381275        10.3750 
 112   0.0000       0.381631        10.3847 
 113   0.0000       0.405105        11.0235 
 114   0.0000       0.407760        11.0957 
 115   0.0000       0.417868        11.3708 
 116   0.0000       0.424702        11.5567 
 117   0.0000       0.430361        11.7107 
 118   0.0000       0.435103        11.8398 
 119   0.0000       0.441892        12.0245 
 120   0.0000       0.452544        12.3143 
 121   0.0000       0.461413        12.5557 
 122   0.0000       0.469208        12.7678 
 123   0.0000       0.483192        13.1483 
 124   0.0000       0.488934        13.3046 
 125   0.0000       0.491938        13.3863 
 126   0.0000       0.495062        13.4713 
 127   0.0000       0.506962        13.7951 
 128   0.0000       0.515075        14.0159 
 129   0.0000       0.516232        14.0474 
 130   0.0000       0.521786        14.1985 
 131   0.0000       0.535113        14.5612 
 132   0.0000       0.543816        14.7980 
 133   0.0000       0.553635        15.0652 
 134   0.0000       0.559752        15.2316 
 135   0.0000       0.563914        15.3449 
 136   0.0000       0.567427        15.4405 
 137   0.0000       0.576536        15.6883 
 138   0.0000       0.582384        15.8475 
 139   0.0000       0.586947        15.9716 
 140   0.0000       0.591761        16.1026 
 141   0.0000       0.593145        16.1403 
 142   0.0000       0.600968        16.3532 
 143   0.0000       0.610769        16.6199 
 144   0.0000       0.614207        16.7134 
 145   0.0000       0.616953        16.7881 
 146   0.0000       0.621699        16.9173 
 147   0.0000       0.625712        17.0265 
 148   0.0000       0.628960        17.1149 
 149   0.0000       0.636158        17.3107 
 150   0.0000       0.638092        17.3634 
 151   0.0000       0.646575        17.5942 
 152   0.0000       0.648055        17.6345 
 153   0.0000       0.655143        17.8274 
 154   0.0000       0.657340        17.8871 
 155   0.0000       0.663483        18.0543 
 156   0.0000       0.672332        18.2951 
 157   0.0000       0.674030        18.3413 
 158   0.0000       0.677345        18.4315 
 159   0.0000       0.681151        18.5351 
 160   0.0000       0.689242        18.7552 
 161   0.0000       0.693564        18.8728 
 162   0.0000       0.694806        18.9066 
 163   0.0000       0.705994        19.2111 
 164   0.0000       0.706820        19.2336 
 165   0.0000       0.710022        19.3207 
 166   0.0000       0.716190        19.4885 
 167   0.0000       0.717629        19.5277 
 168   0.0000       0.723410        19.6850 
 169   0.0000       0.727972        19.8091 
 170   0.0000       0.732155        19.9229 
 171   0.0000       0.738104        20.0848 
 172   0.0000       0.741363        20.1735 
 173   0.0000       0.742096        20.1935 
 174   0.0000       0.748207        20.3598 
 175   0.0000       0.749823        20.4037 
 176   0.0000       0.754517        20.5314 
 177   0.0000       0.760128        20.6841 
 178   0.0000       0.762556        20.7502 
 179   0.0000       0.765604        20.8331 
 180   0.0000       0.771367        20.9900 
 181   0.0000       0.779062        21.1993 
 182   0.0000       0.780552        21.2399 
 183   0.0000       0.784569        21.3492 
 184   0.0000       0.794278        21.6134 
 185   0.0000       0.797920        21.7125 
 186   0.0000       0.802279        21.8311 
 187   0.0000       0.812294        22.1037 
 188   0.0000       0.819160        22.2905 
 189   0.0000       0.823440        22.4069 
 190   0.0000       0.827520        22.5180 
 191   0.0000       0.838925        22.8283 
 192   0.0000       0.842827        22.9345 
 193   0.0000       0.853870        23.2350 
 194   0.0000       0.862235        23.4626 
 195   0.0000       0.866236        23.5715 
 196   0.0000       0.877426        23.8760 
 197   0.0000       0.882070        24.0023 
 198   0.0000       0.888352        24.1733 
 199   0.0000       0.900398        24.5011 
 200   0.0000       0.903108        24.5748 
 201   0.0000       0.907426        24.6923 
 202   0.0000       0.916193        24.9309 
 203   0.0000       0.923257        25.1231 
 204   0.0000       0.931370        25.3439 
 205   0.0000       0.934959        25.4415 
 206   0.0000       0.944200        25.6930 
 207   0.0000       0.946055        25.7435 
 208   0.0000       0.955216        25.9928 
 209   0.0000       0.961551        26.1651 
 210   0.0000       0.971413        26.4335 
 211   0.0000       0.972494        26.4629 
 212   0.0000       0.978534        26.6273 
 213   0.0000       0.983436        26.7607 
 214   0.0000       0.986965        26.8567 
 215   0.0000       0.988613        26.9015 
 216   0.0000       1.004914        27.3451 
 217   0.0000       1.006872        27.3984 
 218   0.0000       1.015837        27.6423 
 219   0.0000       1.019936        27.7539 
 220   0.0000       1.024698        27.8834 
 221   0.0000       1.029076        28.0026 
 222   0.0000       1.037258        28.2252 
 223   0.0000       1.039850        28.2958 
 224   0.0000       1.046237        28.4696 
 225   0.0000       1.054794        28.7024 
 226   0.0000       1.060722        28.8637 
 227   0.0000       1.068039        29.0628 
 228   0.0000       1.071884        29.1674 
 229   0.0000       1.074990        29.2520 
 230   0.0000       1.085550        29.5393 
 231   0.0000       1.095176        29.8012 
 232   0.0000       1.098148        29.8821 
 233   0.0000       1.106299        30.1039 
 234   0.0000       1.115636        30.3580 
 235   0.0000       1.123170        30.5630 
 236   0.0000       1.129672        30.7399 
 237   0.0000       1.135454        30.8973 
 238   0.0000       1.140704        31.0401 
 239   0.0000       1.151668        31.3385 
 240   0.0000       1.155251        31.4360 
 241   0.0000       1.158612        31.5274 
 242   0.0000       1.166672        31.7468 
 243   0.0000       1.173405        31.9300 
 244   0.0000       1.175637        31.9907 
 245   0.0000       1.184305        32.2266 
 246   0.0000       1.187109        32.3029 
 247   0.0000       1.194519        32.5045 
 248   0.0000       1.201556        32.6960 
 249   0.0000       1.207247        32.8509 
 250   0.0000       1.216235        33.0954 
 251   0.0000       1.223296        33.2876 
 252   0.0000       1.225850        33.3571 
 253   0.0000       1.229713        33.4622 
 254   0.0000       1.236732        33.6532 
 255   0.0000       1.246950        33.9312 
 256   0.0000       1.253271        34.1032 
 257   0.0000       1.258097        34.2346 
 258   0.0000       1.271392        34.5963 
 259   0.0000       1.277727        34.7687 
 260   0.0000       1.283309        34.9206 
 261   0.0000       1.291483        35.1430 
 262   0.0000       1.298217        35.3263 
 263   0.0000       1.303312        35.4649 
 264   0.0000       1.317612        35.8540 
 265   0.0000       1.320062        35.9207 
 266   0.0000       1.322617        35.9902 
 267   0.0000       1.326882        36.1063 
 268   0.0000       1.334929        36.3253 
 269   0.0000       1.340441        36.4752 
 270   0.0000       1.342453        36.5300 
 271   0.0000       1.349614        36.7249 
 272   0.0000       1.353439        36.8289 
 273   0.0000       1.362098        37.0646 
 274   0.0000       1.368988        37.2521 
 275   0.0000       1.371602        37.3232 
 276   0.0000       1.376480        37.4559 
 277   0.0000       1.384276        37.6681 
 278   0.0000       1.391779        37.8722 
 279   0.0000       1.398738        38.0616 
 280   0.0000       1.401301        38.1313 
 281   0.0000       1.411044        38.3965 
 282   0.0000       1.415434        38.5159 
 283   0.0000       1.430897        38.9367 
 284   0.0000       1.434511        39.0350 
 285   0.0000       1.448299        39.4102 
 286   0.0000       1.451142        39.4876 
 287   0.0000       1.453074        39.5401 
 288   0.0000       1.460124        39.7320 
 289   0.0000       1.465067        39.8665 
 290   0.0000       1.469750        39.9939 
 291   0.0000       1.471655        40.0458 
 292   0.0000       1.478350        40.2279 
 293   0.0000       1.486598        40.4524 
 294   0.0000       1.492353        40.6090 
 295   0.0000       1.496713        40.7276 
 296   0.0000       1.498057        40.7642 
 297   0.0000       1.510058        41.0908 
 298   0.0000       1.515240        41.2318 
 299   0.0000       1.522680        41.4342 
 300   0.0000       1.534550        41.7572 
 301   0.0000       1.537319        41.8326 
 302   0.0000       1.539195        41.8836 
 303   0.0000       1.542719        41.9795 
 304   0.0000       1.549245        42.1571 
 305   0.0000       1.552675        42.2504 
 306   0.0000       1.559645        42.4401 
 307   0.0000       1.569441        42.7067 
 308   0.0000       1.571702        42.7682 
 309   0.0000       1.582730        43.0683 
 310   0.0000       1.584306        43.1112 
 311   0.0000       1.594913        43.3998 
 312   0.0000       1.601268        43.5727 
 313   0.0000       1.604519        43.6612 
 314   0.0000       1.612576        43.8804 
 315   0.0000       1.616693        43.9924 
 316   0.0000       1.622681        44.1554 
 317   0.0000       1.629783        44.3486 
 318   0.0000       1.634665        44.4815 
 319   0.0000       1.647057        44.8187 
 320   0.0000       1.651333        44.9351 
 321   0.0000       1.655635        45.0521 
 322   0.0000       1.662393        45.2360 
 323   0.0000       1.665720        45.3265 
 324   0.0000       1.676795        45.6279 
 325   0.0000       1.685070        45.8531 
 326   0.0000       1.685665        45.8693 
 327   0.0000       1.693879        46.0928 
 328   0.0000       1.695738        46.1434 
 329   0.0000       1.706666        46.4407 
 330   0.0000       1.717047        46.7232 
 331   0.0000       1.719826        46.7988 
 332   0.0000       1.732145        47.1341 
 333   0.0000       1.739880        47.3446 
 334   0.0000       1.742119        47.4055 
 335   0.0000       1.749109        47.5957 
 336   0.0000       1.756609        47.7998 
 337   0.0000       1.760939        47.9176 
 338   0.0000       1.771304        48.1996 
 339   0.0000       1.773102        48.2486 
 340   0.0000       1.789622        48.6981 
 341   0.0000       1.794846        48.8402 
 342   0.0000       1.799879        48.9772 
 343   0.0000       1.812518        49.3211 
 344   0.0000       1.827405        49.7262 
 345   0.0000       1.830379        49.8072 
 346   0.0000       1.846570        50.2477 
 347   0.0000       1.851829        50.3908 
 348   0.0000       1.855730        50.4970 
 349   0.0000       1.867512        50.8176 
 350   0.0000       1.872305        50.9480 
 351   0.0000       1.882417        51.2232 
 352   0.0000       1.884716        51.2857 
 353   0.0000       1.893947        51.5369 
 354   0.0000       1.910149        51.9778 
 355   0.0000       1.915863        52.1333 
 356   0.0000       1.928828        52.4861 
 357   0.0000       1.935058        52.6556 
 358   0.0000       1.940871        52.8138 
 359   0.0000       1.947193        52.9858 
 360   0.0000       1.964074        53.4452 
 361   0.0000       1.968297        53.5601 
 362   0.0000       1.972501        53.6745 
 363   0.0000       1.987864        54.0925 
 364   0.0000       1.992579        54.2208 
 365   0.0000       2.002192        54.4824 
 366   0.0000       2.015615        54.8477 
 367   0.0000       2.033969        55.3471 
 368   0.0000       2.039535        55.4986 
 369   0.0000       2.042206        55.5713 
 370   0.0000       2.061544        56.0975 
 371   0.0000       2.070388        56.3381 
 372   0.0000       2.079532        56.5870 
 373   0.0000       2.083574        56.6969 
 374   0.0000       2.089425        56.8562 
 375   0.0000       2.102476        57.2113 
 376   0.0000       2.115968        57.5784 
 377   0.0000       2.131734        58.0074 
 378   0.0000       2.137382        58.1611 
 379   0.0000       2.156885        58.6918 
 380   0.0000       2.164526        58.8998 
 381   0.0000       2.169760        59.0422 
 382   0.0000       2.176025        59.2126 
 383   0.0000       2.178105        59.2692 
 384   0.0000       2.190365        59.6029 
 385   0.0000       2.195548        59.7439 
 386   0.0000       2.208262        60.0899 
 387   0.0000       2.224007        60.5183 
 388   0.0000       2.225614        60.5620 
 389   0.0000       2.247076        61.1461 
 390   0.0000       2.262760        61.5728 
 391   0.0000       2.268490        61.7288 
 392   0.0000       2.283442        62.1356 
 393   0.0000       2.291061        62.3429 
 394   0.0000       2.326693        63.3125 
 395   0.0000       2.340922        63.6997 
 396   0.0000       2.349928        63.9448 
 397   0.0000       2.360785        64.2402 
 398   0.0000       2.388940        65.0064 
 399   0.0000       2.399138        65.2839 
 400   0.0000       2.404849        65.4393 
 401   0.0000       2.415093        65.7180 
 402   0.0000       2.451327        66.7040 
 403   0.0000       2.457176        66.8632 
 404   0.0000       2.491005        67.7837 
 405   0.0000       2.496145        67.9235 
 406   0.0000       2.522138        68.6309 
 407   0.0000       2.529599        68.8339 
 408   0.0000       2.547991        69.3344 
 409   0.0000       2.567744        69.8719 
 410   0.0000       2.583864        70.3105 
 411   0.0000       2.588169        70.4276 
 412   0.0000       2.589431        70.4620 
 413   0.0000       2.611289        71.0568 
 414   0.0000       2.621836        71.3438 
 415   0.0000       2.630520        71.5801 
 416   0.0000       2.634572        71.6904 
 417   0.0000       2.650924        72.1353 
 418   0.0000       2.661391        72.4201 
 419   0.0000       2.668514        72.6139 
 420   0.0000       2.677975        72.8714 
 421   0.0000       2.683534        73.0227 
 422   0.0000       2.702483        73.5383 
 423   0.0000       2.709027        73.7164 
 424   0.0000       2.716185        73.9111 
 425   0.0000       2.721921        74.0672 
 426   0.0000       2.733518        74.3828 
 427   0.0000       2.741364        74.5963 
 428   0.0000       2.752440        74.8977 
 429   0.0000       2.758899        75.0735 
 430   0.0000       2.761672        75.1489 
 431   0.0000       2.784536        75.7711 
 432   0.0000       2.806989        76.3821 
 433   0.0000       2.817411        76.6657 
 434   0.0000       2.828100        76.9565 
 435   0.0000       2.846633        77.4608 
 436   0.0000       2.848812        77.5201 
 437   0.0000       2.857615        77.7597 
 438   0.0000       2.858348        77.7796 
 439   0.0000       2.868268        78.0495 
 440   0.0000       2.871176        78.1287 
 441   0.0000       2.883714        78.4698 
 442   0.0000       2.887667        78.5774 
 443   0.0000       2.894789        78.7712 
 444   0.0000       2.913765        79.2876 
 445   0.0000       2.920990        79.4842 
 446   0.0000       2.928089        79.6774 
 447   0.0000       2.951067        80.3026 
 448   0.0000       2.955756        80.4302 
 449   0.0000       2.958180        80.4962 
 450   0.0000       2.971900        80.8695 
 451   0.0000       2.973675        80.9178 
 452   0.0000       2.991497        81.4028 
 453   0.0000       3.000226        81.6403 
 454   0.0000       3.002638        81.7059 
 455   0.0000       3.019741        82.1713 
 456   0.0000       3.021171        82.2102 
 457   0.0000       3.028998        82.4232 
 458   0.0000       3.033494        82.5456 
 459   0.0000       3.048799        82.9620 
 460   0.0000       3.053756        83.0969 
 461   0.0000       3.059319        83.2483 
 462   0.0000       3.064017        83.3761 
 463   0.0000       3.073795        83.6422 
 464   0.0000       3.077609        83.7460 
 465   0.0000       3.082950        83.8913 
 466   0.0000       3.092787        84.1590 
 467   0.0000       3.096773        84.2675 
 468   0.0000       3.111045        84.6558 
 469   0.0000       3.120755        84.9201 
 470   0.0000       3.127475        85.1029 
 471   0.0000       3.136358        85.3446 
 472   0.0000       3.140832        85.4664 
 473   0.0000       3.147759        85.6549 
 474   0.0000       3.152633        85.7875 
 475   0.0000       3.156723        85.8988 
 476   0.0000       3.164439        86.1088 
 477   0.0000       3.171112        86.2903 
 478   0.0000       3.181630        86.5765 
 479   0.0000       3.184310        86.6495 
 480   0.0000       3.190921        86.8294 
 481   0.0000       3.203125        87.1615 
 482   0.0000       3.212143        87.4068 
 483   0.0000       3.216452        87.5241 
 484   0.0000       3.219509        87.6073 
 485   0.0000       3.225966        87.7830 
 486   0.0000       3.235097        88.0315 
 487   0.0000       3.236432        88.0678 
 488   0.0000       3.244769        88.2947 
 489   0.0000       3.255311        88.5815 
 490   0.0000       3.276689        89.1632 
 491   0.0000       3.279592        89.2422 
 492   0.0000       3.284865        89.3857 
 493   0.0000       3.290994        89.5525 
 494   0.0000       3.295658        89.6794 
 495   0.0000       3.300929        89.8228 
 496   0.0000       3.302136        89.8557 
 497   0.0000       3.309215        90.0483 
 498   0.0000       3.318611        90.3040 
 499   0.0000       3.323629        90.4405 
 500   0.0000       3.330860        90.6373 
 501   0.0000       3.334102        90.7255 
 502   0.0000       3.340534        90.9005 
 503   0.0000       3.345848        91.0451 
 504   0.0000       3.354843        91.2899 
 505   0.0000       3.357629        91.3657 
 506   0.0000       3.366967        91.6198 
 507   0.0000       3.372833        91.7794 
 508   0.0000       3.383243        92.0627 
 509   0.0000       3.392003        92.3011 
 510   0.0000       3.398644        92.4818 
 511   0.0000       3.399982        92.5182 
 512   0.0000       3.402537        92.5877 
 513   0.0000       3.409757        92.7842 
 514   0.0000       3.413375        92.8827 
 515   0.0000       3.419209        93.0414 
 516   0.0000       3.428100        93.2833 
 517   0.0000       3.431538        93.3769 
 518   0.0000       3.438248        93.5595 
 519   0.0000       3.441093        93.6369 
 520   0.0000       3.448346        93.8343 
 521   0.0000       3.453412        93.9721 
 522   0.0000       3.461179        94.1835 
 523   0.0000       3.468717        94.3886 
 524   0.0000       3.475689        94.5783 
 525   0.0000       3.480595        94.7118 
 526   0.0000       3.489276        94.9480 
 527   0.0000       3.494998        95.1037 
 528   0.0000       3.500732        95.2598 
 529   0.0000       3.501920        95.2921 
 530   0.0000       3.513518        95.6077 
 531   0.0000       3.517269        95.7098 
 532   0.0000       3.521322        95.8200 
 533   0.0000       3.527962        96.0007 
 534   0.0000       3.534112        96.1681 
 535   0.0000       3.541220        96.3615 
 536   0.0000       3.542453        96.3950 
 537   0.0000       3.548849        96.5691 
 538   0.0000       3.557886        96.8150 
 539   0.0000       3.560974        96.8990 
 540   0.0000       3.568008        97.0904 
 541   0.0000       3.572109        97.2020 
 542   0.0000       3.583603        97.5148 
 543   0.0000       3.585080        97.5550 
 544   0.0000       3.587413        97.6185 
 545   0.0000       3.594898        97.8222 
 546   0.0000       3.600594        97.9771 
 547   0.0000       3.604308        98.0782 
 548   0.0000       3.608742        98.1989 
 549   0.0000       3.614764        98.3627 
 550   0.0000       3.619322        98.4868 
 551   0.0000       3.628678        98.7414 
 552   0.0000       3.635559        98.9286 
 553   0.0000       3.642552        99.1189 
 554   0.0000       3.651020        99.3493 
 555   0.0000       3.652731        99.3959 
 556   0.0000       3.658812        99.5613 
 557   0.0000       3.663364        99.6852 
 558   0.0000       3.672926        99.9454 
 559   0.0000       3.679595       100.1269 
 560   0.0000       3.687576       100.3440 
 561   0.0000       3.692236       100.4709 
 562   0.0000       3.700249       100.6889 
 563   0.0000       3.704255       100.7979 
 564   0.0000       3.713252       101.0427 
 565   0.0000       3.717572       101.1603 
 566   0.0000       3.722992       101.3078 
 567   0.0000       3.726996       101.4167 
 568   0.0000       3.738750       101.7366 
 569   0.0000       3.751173       102.0746 
 570   0.0000       3.754074       102.1536 
 571   0.0000       3.759216       102.2935 
 572   0.0000       3.763304       102.4047 
 573   0.0000       3.767611       102.5219 
 574   0.0000       3.776573       102.7658 
 575   0.0000       3.782580       102.9292 
 576   0.0000       3.793354       103.2224 
 577   0.0000       3.796782       103.3157 
 578   0.0000       3.801313       103.4390 
 579   0.0000       3.805198       103.5447 
 580   0.0000       3.819274       103.9277 
 581   0.0000       3.826259       104.1178 
 582   0.0000       3.830400       104.2305 
 583   0.0000       3.834223       104.3345 
 584   0.0000       3.837782       104.4314 
 585   0.0000       3.844769       104.6215 
 586   0.0000       3.847287       104.6900 
 587   0.0000       3.854458       104.8851 
 588   0.0000       3.866387       105.2097 
 589   0.0000       3.868850       105.2768 
 590   0.0000       3.873189       105.3948 
 591   0.0000       3.882134       105.6382 
 592   0.0000       3.882470       105.6474 
 593   0.0000       3.884915       105.7139 
 594   0.0000       3.891953       105.9054 
 595   0.0000       3.896899       106.0400 
 596   0.0000       3.902118       106.1820 
 597   0.0000       3.906457       106.3001 
 598   0.0000       3.909126       106.3727 
 599   0.0000       3.916875       106.5836 
 600   0.0000       3.919555       106.6565 
 601   0.0000       3.925354       106.8143 
 602   0.0000       3.931975       106.9945 
 603   0.0000       3.940976       107.2394 
 604   0.0000       3.953147       107.5706 
 605   0.0000       3.960585       107.7730 
 606   0.0000       3.963337       107.8479 
 607   0.0000       3.966572       107.9359 
 608   0.0000       3.973242       108.1174 
 609   0.0000       3.979761       108.2948 
 610   0.0000       3.985893       108.4617 
 611   0.0000       3.995097       108.7121 
 612   0.0000       4.007439       109.0479 
 613   0.0000       4.014491       109.2398 
 614   0.0000       4.021271       109.4243 
 615   0.0000       4.023120       109.4747 
 616   0.0000       4.039220       109.9128 
 617   0.0000       4.055011       110.3425 
 618   0.0000       4.064661       110.6051 
 619   0.0000       4.070138       110.7541 
 620   0.0000       4.072033       110.8057 
 621   0.0000       4.081405       111.0607 
 622   0.0000       4.091448       111.3340 
 623   0.0000       4.100351       111.5762 
 624   0.0000       4.105689       111.7215 
 625   0.0000       4.112475       111.9061 
 626   0.0000       4.115472       111.9877 
 627   0.0000       4.125799       112.2687 
 628   0.0000       4.128637       112.3459 
 629   0.0000       4.131343       112.4196 
 630   0.0000       4.142175       112.7143 
 631   0.0000       4.146936       112.8439 
 632   0.0000       4.148855       112.8961 
 633   0.0000       4.151753       112.9749 
 634   0.0000       4.163860       113.3044 
 635   0.0000       4.166798       113.3843 
 636   0.0000       4.171836       113.5214 
 637   0.0000       4.177853       113.6852 
 638   0.0000       4.183209       113.8309 
 639   0.0000       4.191499       114.0565 
 640   0.0000       4.196041       114.1801 
 641   0.0000       4.202696       114.3612 
 642   0.0000       4.207753       114.4988 
 643   0.0000       4.215971       114.7224 
 644   0.0000       4.219596       114.8211 
 645   0.0000       4.222490       114.8998 
 646   0.0000       4.236665       115.2855 
 647   0.0000       4.238700       115.3409 
 648   0.0000       4.249580       115.6369 
 649   0.0000       4.259794       115.9149 
 650   0.0000       4.262773       115.9960 
 651   0.0000       4.267587       116.1270 
 652   0.0000       4.280771       116.4857 
 653   0.0000       4.287337       116.6644 
 654   0.0000       4.298845       116.9775 
 655   0.0000       4.304387       117.1283 
 656   0.0000       4.306581       117.1880 
 657   0.0000       4.310244       117.2877 
 658   0.0000       4.317496       117.4850 
 659   0.0000       4.320793       117.5748 
 660   0.0000       4.334653       117.9519 
 661   0.0000       4.351305       118.4050 
 662   0.0000       4.351623       118.4137 
 663   0.0000       4.363482       118.7364 
 664   0.0000       4.366692       118.8237 
 665   0.0000       4.370454       118.9261 
 666   0.0000       4.379665       119.1767 
 667   0.0000       4.386495       119.3626 
 668   0.0000       4.391741       119.5054 
 669   0.0000       4.398240       119.6822 
 670   0.0000       4.401435       119.7691 
 671   0.0000       4.405065       119.8679 
 672   0.0000       4.419481       120.2602 
 673   0.0000       4.431634       120.5909 
 674   0.0000       4.434579       120.6710 
 675   0.0000       4.442513       120.8869 
 676   0.0000       4.448001       121.0363 
 677   0.0000       4.452054       121.1466 
 678   0.0000       4.459070       121.3375 
 679   0.0000       4.461183       121.3950 
 680   0.0000       4.467076       121.5553 
 681   0.0000       4.482128       121.9649 
 682   0.0000       4.489828       122.1744 
 683   0.0000       4.497587       122.3856 
 684   0.0000       4.500435       122.4631 
 685   0.0000       4.507612       122.6584 
 686   0.0000       4.513158       122.8093 
 687   0.0000       4.523341       123.0864 
 688   0.0000       4.530355       123.2772 
 689   0.0000       4.536679       123.4493 
 690   0.0000       4.546823       123.7253 
 691   0.0000       4.558202       124.0350 
 692   0.0000       4.558920       124.0545 
 693   0.0000       4.569939       124.3543 
 694   0.0000       4.581574       124.6710 
 695   0.0000       4.586940       124.8170 
 696   0.0000       4.589378       124.8833 
 697   0.0000       4.605048       125.3097 
 698   0.0000       4.608085       125.3924 
 699   0.0000       4.614639       125.5707 
 700   0.0000       4.618574       125.6778 
 701   0.0000       4.630066       125.9905 
 702   0.0000       4.633548       126.0853 
 703   0.0000       4.638593       126.2225 
 704   0.0000       4.650493       126.5463 
 705   0.0000       4.654605       126.6582 
 706   0.0000       4.656862       126.7196 
 707   0.0000       4.662797       126.8812 
 708   0.0000       4.671892       127.1286 
 709   0.0000       4.682629       127.4208 
 710   0.0000       4.687911       127.5645 
 711   0.0000       4.700612       127.9102 
 712   0.0000       4.709364       128.1483 
 713   0.0000       4.717596       128.3723 
 714   0.0000       4.719684       128.4291 
 715   0.0000       4.729493       128.6960 
 716   0.0000       4.733535       128.8060 
 717   0.0000       4.737827       128.9228 
 718   0.0000       4.738923       128.9527 
 719   0.0000       4.750403       129.2650 
 720   0.0000       4.758016       129.4722 
 721   0.0000       4.760269       129.5335 
 722   0.0000       4.766277       129.6970 
 723   0.0000       4.785731       130.2264 
 724   0.0000       4.793833       130.4468 
 725   0.0000       4.795072       130.4805 
 726   0.0000       4.807560       130.8204 
 727   0.0000       4.811201       130.9194 
 728   0.0000       4.819482       131.1448 
 729   0.0000       4.826635       131.3394 
 730   0.0000       4.835756       131.5876 
 731   0.0000       4.841655       131.7481 
 732   0.0000       4.855041       132.1124 
 733   0.0000       4.864614       132.3729 
 734   0.0000       4.878553       132.7522 
 735   0.0000       4.882426       132.8576 
 736   0.0000       4.884440       132.9124 
 737   0.0000       4.904747       133.4650 
 738   0.0000       4.915243       133.7506 
 739   0.0000       4.928958       134.1238 
 740   0.0000       4.938166       134.3743 
 741   0.0000       4.941748       134.4718 
 742   0.0000       4.958539       134.9287 
 743   0.0000       4.970228       135.2468 
 744   0.0000       4.972953       135.3209 
 745   0.0000       4.977277       135.4386 
 746   0.0000       4.984785       135.6429 
 747   0.0000       4.993852       135.8896 
 748   0.0000       5.003673       136.1569 
 749   0.0000       5.017924       136.5447 
 750   0.0000       5.024290       136.7179 
 751   0.0000       5.031551       136.9155 
 752   0.0000       5.044989       137.2811 
 753   0.0000       5.049648       137.4079 
 754   0.0000       5.070074       137.9637 
 755   0.0000       5.081274       138.2685 
 756   0.0000       5.093176       138.5924 
 757   0.0000       5.102024       138.8331 
 758   0.0000       5.114877       139.1829 
 759   0.0000       5.120433       139.3341 
 760   0.0000       5.137317       139.7935 
 761   0.0000       5.143748       139.9685 
 762   0.0000       5.151129       140.1693 
 763   0.0000       5.155845       140.2977 
 764   0.0000       5.183910       141.0614 
 765   0.0000       5.190417       141.2384 
 766   0.0000       5.199068       141.4738 
 767   0.0000       5.208909       141.7416 
 768   0.0000       5.214110       141.8831 
 769   0.0000       5.218206       141.9946 
 770   0.0000       5.222462       142.1104 
 771   0.0000       5.239426       142.5720 
 772   0.0000       5.249729       142.8524 
 773   0.0000       5.258723       143.0971 
 774   0.0000       5.262435       143.1981 
 775   0.0000       5.270871       143.4277 
 776   0.0000       5.281347       143.7128 
 777   0.0000       5.287999       143.8938 
 778   0.0000       5.293058       144.0314 
 779   0.0000       5.298448       144.1781 
 780   0.0000       5.311886       144.5438 
 781   0.0000       5.317795       144.7046 
 782   0.0000       5.332871       145.1148 
 783   0.0000       5.346443       145.4841 
 784   0.0000       5.357338       145.7806 
 785   0.0000       5.361171       145.8849 
 786   0.0000       5.382547       146.4666 
 787   0.0000       5.393991       146.7780 
 788   0.0000       5.413970       147.3216 
 789   0.0000       5.423088       147.5697 
 790   0.0000       5.429098       147.7333 
 791   0.0000       5.447146       148.2244 
 792   0.0000       5.461009       148.6016 
 793   0.0000       5.482674       149.1912 
 794   0.0000       5.489931       149.3886 
 795   0.0000       5.500783       149.6839 
 796   0.0000       5.515330       150.0798 
 797   0.0000       5.521802       150.2559 
 798   0.0000       5.535101       150.6177 
 799   0.0000       5.537739       150.6895 
 800   0.0000       5.557882       151.2377 
 801   0.0000       5.577062       151.7596 
 802   0.0000       5.593596       152.2095 
 803   0.0000       5.596943       152.3006 
 804   0.0000       5.600994       152.4108 
 805   0.0000       5.617352       152.8559 
 806   0.0000       5.628253       153.1526 
 807   0.0000       5.642220       153.5326 
 808   0.0000       5.646153       153.6396 
 809   0.0000       5.658721       153.9816 
 810   0.0000       5.669494       154.2748 
[...]
--------------------------------

PNO truncation parameters                   .... 
    ScaleTCutPNO       =        1.000e-02
    PAOOverlapThresh   =        1.000e-08

    TCutPairs          =        1.000e-05
    TCutPNO            =        1.000e-07
    TCutPNOSingles     =        3.000e-09
    TCutMP2Pairs       =        1.000e-06
    TCutMKN            =        1.000e-03
    TCutDO             =        5.000e-03

Pair selection                          .... not used
Type of local MP2 treatment                 .... full local PMP2
Strategy for PNO selection                  .... occupation number selection
Pair density normalization                  .... MP2 norm
Spin component scaling                      .... not used

PASS-1: Formation of initial guess LMP2 amplitudes
Initial amplitudes guess done. Entering LMP2 iteration loop:
   Max. no of iterations          ...  50
   Energy convergence tolerance   ...    1.0e-07
   Residual convergence tolerance ...    5.0e-07
   Fock matrix cutoff             ...    1.0e-05 Eh
   DIIS convergence acceleration parameters:
        Max # vectors in DIIS     ... 7
        Start iteration of DIIS   ... 0
        Levelshift                ... 2.000e-01
        Damping factor 1          ... 5.000e-01
        Damping factor 2          ... 1.000e+00
   L-MP2 PNO cut-off              ...   1.0e-09
   L-MP2 PNO cut-off (core)       ...   1.0e-11
                           *** Turning on DIIS ***
LMP2-Iter=   0:  ELMP2= -4.249760986388  DE=   1.0e-01 RMAX=   1.8e-02
LMP2-Iter=   1:  ELMP2= -4.303183640108  DE=   5.3e-02 RMAX=   8.6e-03
LMP2-Iter=   2:  ELMP2= -4.313911437486  DE=   1.1e-02 RMAX=   3.4e-03
LMP2-Iter=   3:  ELMP2= -4.315303668779  DE=   1.4e-03 RMAX=   1.2e-03
LMP2-Iter=   4:  ELMP2= -4.315306615113  DE=   2.9e-06 RMAX=   3.3e-04
LMP2-Iter=   5:  ELMP2= -4.315268678293  DE=   3.8e-05 RMAX=   1.1e-04
LMP2-Iter=   6:  ELMP2= -4.315262714023  DE=   6.0e-06 RMAX=   3.1e-05
LMP2-Iter=   7:  ELMP2= -4.315263395186  DE=   6.8e-07 RMAX=   1.0e-05
LMP2-Iter=   8:  ELMP2= -4.315264002661  DE=   6.1e-07 RMAX=   3.0e-06
LMP2-Iter=   9:  ELMP2= -4.315263949230  DE=   5.3e-08 RMAX=   9.8e-07
LMP2-Iter=  10:  ELMP2= -4.315263951686  DE=   2.5e-09 RMAX=   2.2e-07
LMP2-Iter=  11:  ELMP2= -4.315263928203  DE=   2.3e-08 RMAX=   5.1e-08 => CONVERGED
PASS-2: Formation of Pair natural orbitals
   .... Finished loop over pairs

 PNO Occupation Number Statistics: 
  | Av. % of trace(Dij) retained        ...  97.462115525326
  | sigma^2 in % of trace(Dij) retained ...   1.65e+01
  | Av. % of trace(Di) retained         ...  99.999693420211
  | sigma^2 in % of trace(Di) retained  ...   7.48e-09
 Distributions of % trace(Dij) recovered:
  |       >= 99.9  ...   260 ( 15.3 % of all pairs)
  |   [60.0, 70.0) ...     1 (  0.1 % of all pairs)
  |   [70.0, 80.0) ...    17 (  1.0 % of all pairs)
  |   [80.0, 90.0) ...    85 (  5.0 % of all pairs)
  |   [90.0, 99.0) ...   788 ( 46.4 % of all pairs)
  |   [99.0, 99.9) ...   546 ( 32.2 % of all pairs)
 Distributions of % trace(Di) recovered :
  |       >= 99.9  ...    64 (100.0 % of all I-pairs )

Making pair pair interaction lists          ... done

                       ===========================
                       1107 OF 1697 PAIRS ARE KEPT
                       ===========================

Total time spent in the initial guess                 ...   874.658 sec
L-MP2 correlation energy (all non-screened pairs)     ...      -4.315263928203 Eh
L-MP2 PNO error correction                            ...      -0.000161823951 Eh
                                                          --------------------
Initial total L-MP2 energy (non-screened pairs)       ...      -4.315425752154 Eh

Initial PNO correlation energy                        ...      -4.308090990023 Eh
sum of pair energies estimated for screened out pairs ...      -0.000158780242 Eh
sum of MP2 pair energies for pairs that were not kept ...      -0.002637415185 Eh
sum of PNO error estimates for the kept pairs         ...      -0.005049589828 Eh
                                                          --------------------
sum of all corrections                                         -0.007845785255
Initial total correlation energy                               -4.315936775278
Thresholds for map construction and integral transformation for fine MP2 and CCSD(T) calculation:
   TCutMKN   ...     1.0e-03
   TCutDO    ...     5.0e-03
   TCutPairs ...     1.0e-05
   TCutCMO   ...     1.0e-03
   TCutCPAO  ...     1.0e-03

Time for aux screen maps:            0.017
Time for maps after fine MP2:            0.111
-----------------------------
LOCAL RI TRANSFORMATION (IJV)
-----------------------------

Orbital window:      23 to 86
Basis functions:    970 (350 shells)
Aux. functions:    2463 (729 shells)
Use SHARK:           on

Processing maps (0.0 sec)
Average map sizes:
   Aux shells -> MOs(i)           53.3
   Aux shells -> MOs(j)           64.0
   MOs        -> AO shells       276.4

Calculating integrals (17.0 sec, 64.465 MB)
Sorting integrals (0.2 sec, 64.438 MB)
Total time for the integral transformation: 17.2 sec
--------------------------------
LOCAL RI TRANSFORMATION (VABPAO)
--------------------------------

Number of PAOs:     970
Basis functions:    970 (350 shells)
Aux. functions:    2463 (729 shells)
Use SHARK:           on

Processing maps (0.0 sec)
Average map sizes:
   Aux shells -> PAOs            943.1
   PAOs       -> AO shells       322.7

Calculating integrals (110.8 sec, 16781.383 MB)
Finished


-------------------------------------
Pair Pair Term precalculation with     
RI-(ij|mn) and (im|jn) transformation  
ON THE FLY                             
-------------------------------------

   IBatch   1 (of   3)              ... done (  284.272 sec)
   IBatch   2 (of   3)              ... done (  312.522 sec)
   IBatch   3 (of   3)              ... done (  420.571 sec)
Total EXT                           ...        1017.366 sec

---------------------
RI-PNO TRANSFORMATION
---------------------

Total Number of PNOs                   ... 34661
Average number of PNOs per pair        ...    31
Maximal number of PNOs per pair        ...    82
   #pairs with  1 -  5 PNOs   :    0
   #pairs with  6 - 10 PNOs   :  232
   #pairs with 11 - 15 PNOs   :  130
   #pairs with 16 - 20 PNOs   :   84
   #pairs with 21 - 25 PNOs   :   70
   #pairs with 26 - 30 PNOs   :   76
   #pairs with 31 - 35 PNOs   :   76
   #pairs with 36 - 40 PNOs   :   62
   #pairs with 41 - 45 PNOs   :   51
   #pairs with 46 - 50 PNOs   :   68
   #pairs with 51 - 55 PNOs   :   89
   #pairs with 56 - 60 PNOs   :   43
   #pairs with 61 - 65 PNOs   :   65
   #pairs with 66 - 70 PNOs   :   42
   #pairs with 71 - 75 PNOs   :   17
   #pairs with 81 - 85 PNOs   :    2

Generation of (ij|ab)[P] integrals            ... on
Generation of (ia|bc)[P],(ja|bc)[P] integrals ... on
Storage of 3 and 4 external integrals         ... on
Generation of ALL (ka|bc)[P] integrals        ... on
Keep RI integrals in memory                   ... off

Ibatch:  1 (of  1)
Starting 2-4 index PNO integral generation ... done

Timings:
Total PNO integral transformation time     ...        672.627 sec
Size of the 3-external file                ...       620 MB
Size of the 4-external file                ...      4447 MB
Size of the IKJL file                      ...         1 MB
Size of the all 3-external file            ...     16943 MB
Size of the 1-external file                ...        44 MB

Making pair/pair overlap matrices          ... done (  231.948 sec)
Size of the pair overlap file              ... 5585 MB
Redoing the guess amplitudes               ... done (    0.083 sec)

-------------------------
FINAL STARTUP INFORMATION
-------------------------

E(0)                                       ...  -1154.717864163
E(L-MP2)                                   ...     -4.315425752
E(L-MP2) including corrections             ...     -4.315936775
Initial E(tot)                             ...  -1159.033800938
<T|T>                                      ...      1.090172220
Number of pairs included                   ... 1107
Total number of pairs                      ... 2080

------------------------------------------------
                  RHF COUPLED CLUSTER ITERATIONS
------------------------------------------------

Number of PNO amplitudes to be optimized   ...      1534073
Number of non-PNO amplitudes               ...    863115723
Untruncated number of regular amplitudes   ...   1621753120

Iter       E(tot)           E(Corr)          Delta-E          Residual     Time
  0  -1158.865499827     -4.139789879      0.175635873      0.017855061  119.65
                           *** Turning on DIIS ***
  1  -1158.971663132     -4.245953184     -0.106163305      0.012400919  109.94
  2  -1159.073589326     -4.347879378     -0.101926194      0.006240506  116.80
  3  -1159.096100753     -4.370390805     -0.022511428      0.003856618  111.11
  4  -1159.103149422     -4.377439474     -0.007048668      0.001781085  110.42
  5  -1159.105520560     -4.379810612     -0.002371138      0.000853322  112.56
  6  -1159.106055155     -4.380345207     -0.000534595      0.000427181  113.23
  7  -1159.106134445     -4.380424497     -0.000079291      0.000196860  112.73
  8  -1159.106160737     -4.380450789     -0.000026292      0.000122218  112.34
  9  -1159.106134310     -4.380424362      0.000026427      0.000066796  114.81
 10  -1159.106136278     -4.380426330     -0.000001968      0.000039263  114.01
 11  -1159.106133197     -4.380423249      0.000003081      0.000026094  115.52
 12  -1159.106132134     -4.380422186      0.000001063      0.000016607  113.77
 13  -1159.106129758     -4.380419810      0.000002376      0.000010191  114.38
 14  -1159.106128157     -4.380418209      0.000001601      0.000005766  115.27
               --- The Coupled-Cluster iterations have converged ---

----------------------
COUPLED CLUSTER ENERGY
----------------------

E(0)                                       ...  -1154.717864163
E(CORR)(strong-pairs)                      ...     -4.380418209
E(CORR)(weak-pairs)                        ...     -0.007845785
E(CORR)(corrected)                         ...     -4.388263994
E(TOT)                                     ...  -1159.106128157
Singles Norm <S|S>**1/2                    ...      0.156794176  
T1 diagnostic                              ...      0.013858778  

------------------
LARGEST AMPLITUDES
------------------
  65-> 87  65-> 87       0.062874
  72-> 87  72-> 87       0.057801
  71-> 87  71-> 87       0.056090
  64-> 87  64-> 87       0.052203
  62-> 87  62-> 87       0.049984
  65-> 87  64-> 87       0.049415
  72-> 87  71-> 87       0.049186
  61-> 87  61-> 87       0.046983
  40-> 87  40-> 87       0.040334
  62-> 87  61-> 87       0.040145
  53-> 89  53-> 89       0.036966
  79-> 91  79-> 91       0.036554
  85-> 87  85-> 87       0.036330
  82-> 87  82-> 87       0.036014
  29-> 93  29-> 93       0.035304
  49-> 89  49-> 89       0.034957


-------------------------------------------
DLPNO BASED TRIPLES CORRECTION
-------------------------------------------

Singles multiplier          ...  1.000000
TCutTNO                     ... 1.000e-09
TCutMP2Pairs                ... 1.000e-06
TCutDOStrong                ... 1.000e-02
TCutMKNStrong               ... 1.000e-02
TCutDOWeak                  ... 2.000e-02
TCutMKNWeak                 ... 1.000e-01

Fragment selection                          .... not used
Fock matrix occ-virt block is zero --> Setting DT_in_Triples to false.
Number of Triples that are to be computed   ...     18690

 . . . . . . . . .
10% done  
20% done  
30% done  
40% done               (   3197.073 sec)
 . . . . . . . . .
50% done  
60% done  
70% done  
80% done  
90% done               (   3179.949 sec)
Triples timings:
Total time for T0               ...  7083.558 sec
Total time for Iterative (T)    ...     0.000 sec
Total time of overall (T)       ...  9680.850 sec

Triples List generation         ...     0.000 sec
TNO generation                  ...   706.209 sec
Pair density generation         ...     0.054 sec
Look up tables                  ...     0.000 sec
Generating 3-index integrals    ...  4539.058 sec
  Make 4-ind.int. from 3-ind.int...   175.790 sec
  Projecting amplitudes (D + S) ...  1479.055 sec
  Downprojecting integrals      ...     0.011 sec
  Energy contr. (sum over a,b,c)...    12.834 sec
Fitting ET(->0)                 ...     0.000 sec

Everything after 3-index        ...  1837.964 sec

Timing details:
 TNO integrals                  ...  4708.466 sec
   Reading 3-index integrals    ...    24.798 sec
   Sorting integrals            ...   281.906 sec
       Sorting integrals 1      ...     0.009 sec
       Sorting integrals 2      ...   264.921 sec
       Sorting integrals 3      ...     3.862 sec
       Sorting integrals 4      ...     0.576 sec
       Sorting integrals 5      ...     1.960 sec
       Sorting integrals 6      ...    10.578 sec
   Calculating local VM**-1/2   ...     9.879 sec
   Orthogonal. integrals        ...    18.940 sec
   Multipl. 3-index integrals   ...  4372.943 sec
   All concerning IRIab (w/TNO) ...   128.764 sec

 Calculate W0/W1                ...   170.232 sec
 W 3-ext contribution           ...   105.072 sec
 W 3-int contribution           ...    54.046 sec
 Sorting W                      ...     9.845 sec

 V exchange contribution        ...     4.034 sec

 Timings for Triples without generation
     of 3-index integrals       ...  1837.945 sec
       0 weak pairs             ...  1360.499 sec
       1 weak pair              ...   477.446 sec
       2 weak pairs             ...     0.000 sec
       3 weak pairs             ...     0.000 sec
  Extra time for extrapolation  ...     0.000 sec

Number of Triples   (0, 1, 2, 3 weak pairs; overall):  11239    7451       0       0  ( 18690)
Number of Atoms     (0, 1, 2, 3 weak pairs; overall):   22.9    21.8     0.0     0.0  (    43)
Number of PAOs      (0, 1, 2, 3 weak pairs; overall):  546.6   534.9     0.0     0.0  (   970)
Number of AuxFcns   (0, 1, 2, 3 weak pairs; overall):  512.3   383.0     0.0     0.0  (  2463)
Number of TNOs      (0, 1, 2, 3 weak pairs         ):   85.7    50.8     0.0     0.0
Aver. Number of NTNO, Atoms, PAOs, AuxFcns / Triples:  18690    71.8    22.5   541.9   460.7

Triples Correction (T)                     ...     -0.191675408
Final correlation energy                   ...     -4.579939401
E(CCSD)                                    ...  -1159.106128157
E(CCSD(T))                                 ...  -1159.297803564



--------------------------------------------------------------------------------
                                    TIMINGS
--------------------------------------------------------------------------------


Total execution time                   ...    15115.255 sec

Localization of occupied MO's          ...       12.134 sec (  0.1%)
Fock Matrix Formation                  ...      119.042 sec (  0.8%)
Global overlap, Fock, MKN matrices     ...        3.963 sec (  0.0%)
Differential overlap integrals         ...        4.802 sec (  0.0%)
Organizing maps                        ...        0.327 sec (  0.0%)
RI 3-index integral generations        ...      153.888 sec (  1.0%)
RI-PNO integral transformation         ...     2361.245 sec ( 15.6%)
Initial Guess                          ...     1070.262 sec (  7.1%)
DIIS Solver                            ...       22.001 sec (  0.1%)
State Vector Update                    ...        0.173 sec (  0.0%)
Sigma-vector construction              ...     1697.785 sec ( 11.2%)
  <0|H|D>                              ...        0.002 sec (  0.0% of sigma)
  <D|H|D>(0-ext)                       ...      119.199 sec (  7.0% of sigma)
  <D|H|D>(2-ext Fock)                  ...        0.097 sec (  0.0% of sigma)
  <D|H|D>(2-ext)                       ...      475.752 sec ( 28.0% of sigma)
  <D|H|D>(4-ext)                       ...       40.705 sec (  2.4% of sigma)
  <D|H|D>(4-ext-corr)                  ...      271.717 sec ( 16.0% of sigma)
  CCSD doubles correction              ...        3.483 sec (  0.2% of sigma)
  <S|H|S>                              ...        6.234 sec (  0.4% of sigma)
  <S|H|D>(1-ext)                       ...        7.836 sec (  0.5% of sigma)
  <D|H|S>(1-ext)                       ...        0.096 sec (  0.0% of sigma)
  <S|H|D>(3-ext)                       ...        0.961 sec (  0.1% of sigma)
  CCSD singles correction              ...        0.002 sec (  0.0% of sigma)
  Fock-dressing                        ...      293.989 sec ( 17.3% of sigma)
  Singles amplitudes                   ...       29.803 sec (  1.8% of sigma)
  (ik|jl)-dressing                     ...      115.494 sec (  6.8% of sigma)
  (ij|ab),(ia|jb)-dressing             ...       39.329 sec (  2.3% of sigma)
  Pair energies                        ...        0.039 sec (  0.0% of sigma)
Total Time for computing (T)           ...     9680.965 sec ( 64.0% of ALL)


Maximum memory used throughout the entire MDCI-calculation: 10042.5 MB

-------------------------   --------------------
FINAL SINGLE POINT ENERGY     -1159.297803564202
-------------------------   --------------------


                            ***************************************
                            *     ORCA property calculations      *
                            ***************************************


  WARNING: The energy has been calculated at the MDCI level but the densities
           used in the property calculations are still SCF densities
           MDCI response densities have not been calculated 
           use %mdci Density linearized end
           or  %mdci Density unrelaxed end
           or  %mdci Density orbopt end

                                    ---------------------
                                    Active property flags
                                    ---------------------
   (+) Dipole Moment


------------------------------------------------------------------------------
                       ORCA ELECTRIC PROPERTIES CALCULATION
------------------------------------------------------------------------------

Dipole Moment Calculation                       ... on
Quadrupole Moment Calculation                   ... off
Polarizability Calculation                      ... off
GBWName                                         ... input.gbw
Electron density                                ... input.scfp
The origin for moment calculation is the CENTER OF MASS  = (19.766951, 18.829321 18.557354)

-------------
DIPOLE MOMENT
-------------
                                X             Y             Z
Electronic contribution:     24.76873      -6.34735      -0.80255
Nuclear contribution   :    -35.11365      10.52753       5.76399
                        -----------------------------------------
Total Dipole Moment    :    -10.34492       4.18017       4.96144
                        -----------------------------------------
Magnitude (a.u.)       :     12.21094
Magnitude (Debye)      :     31.03774



--------------------
Rotational spectrum 
--------------------
 
Rotational constants in cm-1:     0.014629     0.004232     0.004186 
Rotational constants in MHz :   438.554641   126.878795   125.480004 

 Dipole components along the rotational axes: 
x,y,z [a.u.] :    11.583018     3.631645     1.323587 
x,y,z [Debye]:    29.441691     9.230907     3.364291 

 

Timings for individual modules:

Sum of individual times         ...    15951.867 sec (= 265.864 min)
GTO integral calculation        ...        3.720 sec (=   0.062 min)   0.0 %
SCF iterations                  ...      830.908 sec (=  13.848 min)   5.2 %
MDCI module                     ...    15117.239 sec (= 251.954 min)  94.8 %
                             ****ORCA TERMINATED NORMALLY****
TOTAL RUN TIME: 0 days 4 hours 25 minutes 54 seconds 515 msec
