Loading orca/5.0.3
  Loading requirement: gcc-runtime/11.3.1-gcc-11.3.1-jw6fhud
    numactl/2.0.14-gcc-11.3.1-tqvsbcd openssh/8.7p1-gcc-11.3.1-ddo4kmk
    libiconv/1.17-gcc-11.3.1-h3jdn2x xz/5.4.1-gcc-11.3.1-y32p7p3
    zlib/1.2.13-gcc-11.3.1-dwcx77k libxml2/2.10.3-gcc-11.3.1-m4mk5ab
    cuda/11.8.0-gcc-11.3.1-i5witig libpciaccess/0.17-gcc-11.3.1-qksiqer
    ncurses/6.4-gcc-11.3.1-afnu276 hwloc/2.9.1-gcc-11.3.1-qedjm66
    openssl/3.1.2-gcc-11.3.1-mgoa6lt libevent/2.1.12-gcc-11.3.1-bpr3m74
    pmix/4.2.2-gcc-11.3.1-du4y5e7 slurm/22.05.6-gcc-11.3.1-atym2np
    libnl/3.3.0-gcc-11.3.1-gh3muw7 rdma-core/41.0-gcc-11.3.1-isp54jw
    ucx/1.14.1-gcc-11.3.1-o3wj4kz openmpi/4.1.2-gcc-11.3.1-fs7u3kb

                                 *****************
                                 * O   R   C   A *
                                 *****************

                                            #,                                       
                                            ###                                      
                                            ####                                     
                                            #####                                    
                                            ######                                   
                                           ########,                                 
                                     ,,################,,,,,                         
                               ,,#################################,,                 
                          ,,##########################################,,             
                       ,#########################################, ''#####,          
                    ,#############################################,,   '####,        
                  ,##################################################,,,,####,       
                ,###########''''           ''''###############################       
              ,#####''   ,,,,##########,,,,          '''####'''          '####       
            ,##' ,,,,###########################,,,                        '##       
           ' ,,###''''                  '''############,,,                           
         ,,##''                                '''############,,,,        ,,,,,,###''
      ,#''                                            '''#######################'''  
     '                                                          ''''####''''         
             ,#######,   #######,   ,#######,      ##                                
            ,#'     '#,  ##    ##  ,#'     '#,    #''#        ######   ,####,        
            ##       ##  ##   ,#'  ##            #'  '#       #        #'  '#        
            ##       ##  #######   ##           ,######,      #####,   #    #        
            '#,     ,#'  ##    ##  '#,     ,#' ,#      #,         ##   #,  ,#        
             '#######'   ##     ##  '#######'  #'      '#     #####' # '####'        



                  #######################################################
                  #                        -***-                        #
                  #          Department of theory and spectroscopy      #
                  #    Directorship and core code : Frank Neese         #
                  #        Max Planck Institute fuer Kohlenforschung    #
                  #                Kaiser Wilhelm Platz 1               #
                  #                 D-45470 Muelheim/Ruhr               #
                  #                      Germany                        #
                  #                                                     #
                  #                  All rights reserved                #
                  #                        -***-                        #
                  #######################################################


                         Program Version 5.0.3 -  RELEASE  -


 With contributions from (in alphabetic order):
   Daniel Aravena         : Magnetic Suceptibility
   Michael Atanasov       : Ab Initio Ligand Field Theory (pilot matlab implementation)
   Alexander A. Auer      : GIAO ZORA, VPT2 properties, NMR spectrum
   Ute Becker             : Parallelization
   Giovanni Bistoni       : ED, misc. LED, open-shell LED, HFLD
   Martin Brehm           : Molecular dynamics
   Dmytro Bykov           : SCF Hessian
   Vijay G. Chilkuri      : MRCI spin determinant printing, contributions to CSF-ICE
   Dipayan Datta          : RHF DLPNO-CCSD density
   Achintya Kumar Dutta   : EOM-CC, STEOM-CC
   Dmitry Ganyushin       : Spin-Orbit,Spin-Spin,Magnetic field MRCI
   Miquel Garcia          : C-PCM and meta-GGA Hessian, CC/C-PCM, Gaussian charge scheme
   Yang Guo               : DLPNO-NEVPT2, F12-NEVPT2, CIM, IAO-localization
   Andreas Hansen         : Spin unrestricted coupled pair/coupled cluster methods
   Benjamin Helmich-Paris : MC-RPA, TRAH-SCF, COSX integrals
   Lee Huntington         : MR-EOM, pCC
   Robert Izsak           : Overlap fitted RIJCOSX, COSX-SCS-MP3, EOM
   Marcus Kettner         : VPT2
   Christian Kollmar      : KDIIS, OOCD, Brueckner-CCSD(T), CCSD density, CASPT2, CASPT2-K
   Simone Kossmann        : Meta GGA functionals, TD-DFT gradient, OOMP2, MP2 Hessian
   Martin Krupicka        : Initial AUTO-CI
   Lucas Lang             : DCDCAS
   Marvin Lechner         : AUTO-CI (C++ implementation), FIC-MRCC
   Dagmar Lenk            : GEPOL surface, SMD
   Dimitrios Liakos       : Extrapolation schemes; Compound Job, initial MDCI parallelization
   Dimitrios Manganas     : Further ROCIS development; embedding schemes
   Dimitrios Pantazis     : SARC Basis sets
   Anastasios Papadopoulos: AUTO-CI, single reference methods and gradients
   Taras Petrenko         : DFT Hessian,TD-DFT gradient, ASA, ECA, R-Raman, ABS, FL, XAS/XES, NRVS
   Peter Pinski           : DLPNO-MP2, DLPNO-MP2 Gradient
   Christoph Reimann      : Effective Core Potentials
   Marius Retegan         : Local ZFS, SOC
   Christoph Riplinger    : Optimizer, TS searches, QM/MM, DLPNO-CCSD(T), (RO)-DLPNO pert. Triples
   Tobias Risthaus        : Range-separated hybrids, TD-DFT gradient, RPA, STAB
   Michael Roemelt        : Original ROCIS implementation
   Masaaki Saitow         : Open-shell DLPNO-CCSD energy and density
   Barbara Sandhoefer     : DKH picture change effects
   Avijit Sen             : IP-ROCIS
   Kantharuban Sivalingam : CASSCF convergence, NEVPT2, FIC-MRCI
   Bernardo de Souza      : ESD, SOC TD-DFT
   Georgi Stoychev        : AutoAux, RI-MP2 NMR, DLPNO-MP2 response
   Willem Van den Heuvel  : Paramagnetic NMR
   Boris Wezisla          : Elementary symmetry handling
   Frank Wennmohs         : Technical directorship


 We gratefully acknowledge several colleagues who have allowed us to
 interface, adapt or use parts of their codes:
   Stefan Grimme, W. Hujo, H. Kruse, P. Pracht,  : VdW corrections, initial TS optimization,
                  C. Bannwarth, S. Ehlert          DFT functionals, gCP, sTDA/sTD-DF
   Ed Valeev, F. Pavosevic, A. Kumar             : LibInt (2-el integral package), F12 methods
   Garnet Chan, S. Sharma, J. Yang, R. Olivares  : DMRG
   Ulf Ekstrom                                   : XCFun DFT Library
   Mihaly Kallay                                 : mrcc  (arbitrary order and MRCC methods)
   Jiri Pittner, Ondrej Demel                    : Mk-CCSD
   Frank Weinhold                                : gennbo (NPA and NBO analysis)
   Christopher J. Cramer and Donald G. Truhlar   : smd solvation model
   Lars Goerigk                                  : TD-DFT with DH, B97 family of functionals
   V. Asgeirsson, H. Jonsson                     : NEB implementation
   FAccTs GmbH                                   : IRC, NEB, NEB-TS, DLPNO-Multilevel, CI-OPT
                                                   MM, QMMM, 2- and 3-layer-ONIOM, Crystal-QMMM,
                                                   LR-CPCM, SF, NACMEs, symmetry and pop. for TD-DFT,
                                                   nearIR, NL-DFT gradient (VV10), updates on ESD,
                                                   ML-optimized integration grids
   S Lehtola, MJT Oliveira, MAL Marques          : LibXC Library
   Liviu Ungur et al                             : ANISO software


 Your calculation uses the libint2 library for the computation of 2-el integrals
 For citations please refer to: http://libint.valeyev.net

 Your ORCA version has been built with support for libXC version: 5.1.0
 For citations please refer to: https://tddft.org/programs/libxc/

 This ORCA versions uses:
   CBLAS   interface :  Fast vector & matrix operations
   LAPACKE interface :  Fast linear algebra routines
   SCALAPACK package :  Parallel linear algebra routines
   Shared memory     :  Shared parallel matrices
   BLAS/LAPACK       :  OpenBLAS 0.3.15  USE64BITINT DYNAMIC_ARCH NO_AFFINITY Prescott SINGLE_THREADED
        Core in use  :  Prescott
   Copyright (c) 2011-2014, The OpenBLAS Project


================================================================================

----- Orbital basis set information -----
Your calculation utilizes the basis: cc-pVQZ 
       H, B-Ne : Obtained from the ccRepo (grant-hill.group.shef.ac.uk/ccrepo) Feb. 2017
                 T. H. Dunning, Jr., J. Chem. Phys. 90, 1007 (1989)
            He : Obtained from the ccRepo (grant-hill.group.shef.ac.uk/ccrepo) Feb. 2017
                 D. E. Woon, T. H. Dunning, Jr., J. Chem. Phys. 100, 2975 (1994)
  Li-Be, Na-Mg : Obtained from the ccRepo (grant-hill.group.shef.ac.uk/ccrepo) Feb. 2017
                 B. P. Prascher, D. E. Woon, K. A. Peterson, T. H. Dunning, Jr., A. K. Wilson, Theor. Chem. Acc. 128, 69 (2011)
         Al-Ar : Obtained from the ccRepo (grant-hill.group.shef.ac.uk/ccrepo) Feb. 2017
                 D. E. Woon, T. H. Dunning, Jr., J. Chem. Phys. 98, 1358 (1993)
            Ca : Obtained from the Peterson Research Group Website (tyr0.chem.wsu.edu/~kipeters) Feb. 2017
                 J. Koput, K. A. Peterson, J. Phys. Chem. 106, 9595 (2002)
         Sc-Zn : Obtained from the ccRepo (grant-hill.group.shef.ac.uk/ccrepo) Feb. 2017
                 N. B. Balabanov, K. A. Peterson, J. Chem. Phys. 123, 064107 (2005)
                 N. B. Balabanov, K. A. Peterson, J. Chem. Phys. 125, 074110 (2006)
         Ga-Kr : Obtained from the ccRepo (grant-hill.group.shef.ac.uk/ccrepo) Feb. 2017
                 A. K. Wilson, D. E. Woon, K. A. Peterson, T. H. Dunning, Jr., J. Chem. Phys. 110, 7667 (1999)

----- AuxC basis set information -----
Your calculation utilizes the auxiliary basis: cc-pVQZ/C 
  Obtained from the EMSL Basis Set Exchange (bse.pnl.gov) Feb. 2017
  H-He, B-F, Al-Ar, Ga-Kr : F. Weigend, A. Kohn, C. Hattig, J. Chem. Phys. 116, 3175 (2002)
             Li-Be, Na-Mg : C. Haettig, Phys. Chem. Chem. Phys. 7, 59 (2005)
                       Ne : C. Haettig, Phys. Chem. Chem. Phys. 7, 59 (2005)
                            F. Weigend, A. Kohn, C. Hattig, J. Chem. Phys. 116, 3175 (2002)
                    Sc-Zn : D. H. Bross, J. G. Hill, H. J. Werner, K. A. Peterson, J. Chem. Phys. 139, 094302 (2013)

================================================================================
                                        WARNINGS
                       Please study these warnings very carefully!
================================================================================


WARNING: Post HF methods need fully converged wavefunctions
  ===> : Setting SCFConvForced true
         You can overwrite this default with %scf ConvForced false 


WARNING: MDCI localization with Augmented Hessian Foster-Boys
  ===> : Switching off randomization!

INFO   : the flag for use of the SHARK integral package has been found!

================================================================================
                                       INPUT FILE
================================================================================
NAME = input
|  1> ! DLPNO-CCSD(T) cc-pVQZ cc-pVQZ/C TIGHTPNO TIGHTSCF
|  2> %maxcore 10000
|  3> %pal
|  4> nprocs 16
|  5> end
|  6> *xyz -1 1
|  7> H 4.850893220835 12.924978060495 7.689785237142
|  8> C 5.342610000000 11.981000000000 7.872870000000
|  9> H 5.829600000000 11.689700000000 6.936930000000
| 10> H 4.594560000000 11.209900000000 8.077780000000
| 11> C 6.365050000000 11.900400000000 8.987300000000
| 12> H 5.863200000000 11.963600000000 9.956130000000
| 13> H 7.059210000000 12.738100000000 8.921720000000
| 14> C 7.113840000000 10.570900000000 8.897970000000
| 15> H 7.851430000000 10.602400000000 8.100980000000
| 16> H 6.411130000000 9.778880000000 8.645860000000
| 17> N 7.748350000000 10.134400000000 10.134500000000
| 18> H 7.529230000000 9.209770000000 10.505000000000
| 19> C 8.667230000000 10.793200000000 10.821300000000
| 20> N 9.209800000000 11.916100000000 10.323800000000
| 21> H 9.486870000000 11.780700000000 9.343020000000
| 22> H 9.976520000000 12.267200000000 10.874000000000
| 23> N 9.004220000000 10.340100000000 12.019000000000
| 24> H 9.673000000000 10.831000000000 12.598700000000
| 25> H 8.651600000000 9.432330000000 12.294700000000
| 26> C 13.405400000000 10.597500000000 9.133950000000
| 27> H 13.918400000000 10.393600000000 10.062700000000
| 28> H 13.953100000000 11.043900000000 8.318060000000
| 29> C 12.123500000000 10.303500000000 8.983780000000
| 30> C 11.395300000000 10.659800000000 7.701590000000
| 31> O 12.029100000000 10.686900000000 6.643140000000
| 32> O 10.160600000000 10.934000000000 7.837080000000
| 33> O 11.381300000000 9.787680000000 10.016900000000
| 34> C 11.269000000000 8.344330000000 10.160900000000
| 35> H 10.876700000000 8.219880000000 11.168400000000
| 36> C 12.636200000000 7.767670000000 10.058000000000
| 37> H 13.331100000000 7.965670000000 10.859500000000
| 38> C 13.082500000000 7.225950000000 8.930980000000
| 39> C 12.158600000000 7.030840000000 7.812800000000
| 40> H 12.585700000000 6.704530000000 6.875190000000
| 41> C 10.852000000000 7.249340000000 7.930780000000
| 42> H 10.196900000000 7.083000000000 7.083920000000
| 43> C 10.228700000000 7.770170000000 9.188070000000
| 44> H 9.583710000000 8.610870000000 8.920760000000
| 45> O 9.449030000000 6.740250000000 9.775530000000
| 46> H 8.879960000000 7.105470000000 10.501100000000
| 47> C 14.572900000000 7.053340000000 8.722920000000
| 48> O 15.303400000000 6.888440000000 9.722510000000
| 49> O 14.964200000000 7.180140000000 7.537060000000
| 50> *
| 51> 
| 52>                          ****END OF INPUT****
================================================================================

                       ****************************
                       * Single Point Calculation *
                       ****************************

---------------------------------
CARTESIAN COORDINATES (ANGSTROEM)
---------------------------------
  H      4.850893   12.924978    7.689785
  C      5.342610   11.981000    7.872870
  H      5.829600   11.689700    6.936930
  H      4.594560   11.209900    8.077780
  C      6.365050   11.900400    8.987300
  H      5.863200   11.963600    9.956130
  H      7.059210   12.738100    8.921720
  C      7.113840   10.570900    8.897970
  H      7.851430   10.602400    8.100980
  H      6.411130    9.778880    8.645860
  N      7.748350   10.134400   10.134500
  H      7.529230    9.209770   10.505000
  C      8.667230   10.793200   10.821300
  N      9.209800   11.916100   10.323800
  H      9.486870   11.780700    9.343020
  H      9.976520   12.267200   10.874000
  N      9.004220   10.340100   12.019000
  H      9.673000   10.831000   12.598700
  H      8.651600    9.432330   12.294700
  C     13.405400   10.597500    9.133950
  H     13.918400   10.393600   10.062700
  H     13.953100   11.043900    8.318060
  C     12.123500   10.303500    8.983780
  C     11.395300   10.659800    7.701590
  O     12.029100   10.686900    6.643140
  O     10.160600   10.934000    7.837080
  O     11.381300    9.787680   10.016900
  C     11.269000    8.344330   10.160900
  H     10.876700    8.219880   11.168400
  C     12.636200    7.767670   10.058000
  H     13.331100    7.965670   10.859500
  C     13.082500    7.225950    8.930980
  C     12.158600    7.030840    7.812800
  H     12.585700    6.704530    6.875190
  C     10.852000    7.249340    7.930780
  H     10.196900    7.083000    7.083920
  C     10.228700    7.770170    9.188070
  H      9.583710    8.610870    8.920760
  O      9.449030    6.740250    9.775530
  H      8.879960    7.105470   10.501100
  C     14.572900    7.053340    8.722920
  O     15.303400    6.888440    9.722510
  O     14.964200    7.180140    7.537060

----------------------------
CARTESIAN COORDINATES (A.U.)
----------------------------
  NO LB      ZA    FRAG     MASS         X           Y           Z
   0 H     1.0000    0     1.008    9.166860   24.424669   14.531588
   1 C     6.0000    0    12.011   10.096070   22.640809   14.877568
   2 H     1.0000    0     1.008   11.016347   22.090332   13.108898
   3 H     1.0000    0     1.008    8.682460   21.183641   15.264792
   4 C     6.0000    0    12.011   12.028201   22.488497   16.983536
   5 H     1.0000    0     1.008   11.079842   22.607928   18.814359
   6 H     1.0000    0     1.008   13.339974   24.071520   16.859607
   7 C     6.0000    0    12.011   13.443209   19.976106   16.814726
   8 H     1.0000    0     1.008   14.837052   20.035632   15.308634
   9 H     1.0000    0     1.008   12.115280   18.479405   16.338308
  10 N     7.0000    0    14.007   14.642259   19.151241   19.151430
  11 H     1.0000    0     1.008   14.228183   17.403943   19.851573
  12 C     6.0000    0    12.011   16.378691   20.396192   20.449293
  13 N     7.0000    0    14.007   17.404000   22.518166   19.509155
  14 H     1.0000    0     1.008   17.927586   22.262297   17.655749
  15 H     1.0000    0     1.008   18.852891   23.181648   20.548882
  16 N     7.0000    0    14.007   17.015510   19.539957   22.712618
  17 H     1.0000    0     1.008   18.279321   20.467624   23.808093
  18 H     1.0000    0     1.008   16.349155   17.824521   23.233616
  19 C     6.0000    0    12.011   25.332535   20.026373   17.260664
  20 H     1.0000    0     1.008   26.301964   19.641058   19.015747
  21 H     1.0000    0     1.008   26.367538   20.869946   15.718855
  22 C     6.0000    0    12.011   22.910095   19.470793   16.976884
  23 C     6.0000    0    12.011   21.533996   20.144103   14.553896
  24 O     8.0000    0    15.999   22.731705   20.195314   12.553715
  25 O     8.0000    0    15.999   19.200751   20.662266   14.809935
  26 O     8.0000    0    15.999   21.507540   18.496035   18.929198
  27 C     6.0000    0    12.011   21.295324   15.768498   19.201318
  28 H     1.0000    0     1.008   20.553984   15.533322   21.105217
  29 C     6.0000    0    12.011   23.878957   14.678769   19.006865
  30 H     1.0000    0     1.008   25.192128   15.052935   20.521481
  31 C     6.0000    0    12.011   24.722342   13.655067   16.877106
  32 C     6.0000    0    12.011   22.976424   13.286362   14.764052
  33 H     1.0000    0     1.008   23.783526   12.669726   12.992226
  34 C     6.0000    0    12.011   20.507308   13.699267   14.987002
  35 H     1.0000    0     1.008   19.269348   13.384930   13.386669
  36 C     6.0000    0    12.011   19.329442   14.683493   17.362936
  37 H     1.0000    0     1.008   18.110587   16.272186   16.857793
  38 O     8.0000    0    15.999   17.856079   12.737227   18.473075
  39 H     1.0000    0     1.008   16.780692   13.427392   19.844203
  40 C     6.0000    0    12.011   27.538790   13.328881   16.483930
  41 O     8.0000    0    15.999   28.919235   13.017265   18.372881
  42 O     8.0000    0    15.999   28.278240   13.568498   14.242979

--------------------------------
INTERNAL COORDINATES (ANGSTROEM)
--------------------------------
 H      0   0   0     0.000000000000     0.00000000     0.00000000
 C      1   0   0     1.080000000000     0.00000000     0.00000000
 H      2   1   0     1.094531239253   106.87205777     0.00000000
 H      2   1   3     1.093691967878   109.66991356   245.43754255
 C      2   1   3     1.514540900240   118.59491010   122.67247955
 H      5   2   1     1.092922335484   109.82881486    70.79641010
 H      5   2   1     1.089908313575   110.16843956   312.52110810
 C      5   2   1     1.528475241213   109.51197979   190.57366600
 H      8   5   2     1.086381295034   110.50346669    76.90659608
 H      8   5   2     1.088419255894   109.28096654   319.63053924
 N      8   5   2     1.456757231319   115.11285782   201.73149329
 H     11   8   5     1.019913947988   119.10531654   125.16508084
 C     11   8   5     1.322895360337   126.44143435   301.01501320
 N     13  11   8     1.342681222368   120.31811319   352.78658664
 H     14  13  11     1.028119814662   110.62358978   313.04493215
 H     14  13  11     1.006901588240   113.38160953   187.30651683
 N     13  11   8     1.324140158782   118.42160825   170.81680244
 H     17  13  11     1.012077856887   121.35142117   182.62056992
 H     17  13  11     1.012125351575   117.68588677     9.37789037
 C     15  14  13     4.098603404307   110.14100672   267.22577715
 H     20  15  14     1.080426199469   117.68327119     5.75157528
 H     20  15  14     1.079316794134   113.84837432   219.33126513
 C     20  15  14     1.323727554635    31.13502546   110.65404973
 C     23  20  15     1.516982572774   120.56958149    83.77059880
 O     24  23  20     1.233998886750   118.92006263    30.26784561
 O     24  23  20     1.272017008573   115.24879348   211.62684271
 O     23  20  15     1.372686434259   121.44531616   270.04043214
 C     27  23  20     1.454856182755   119.27698524   267.78626296
 H     28  27  23     1.088321341562   103.46778320   165.35221187
 C     28  27  23     1.487400754874   107.86835034    48.19269652
 H     30  28  27     1.079116425600   117.99496664    68.92134196
 C     30  28  27     1.327711688884   121.72789377   260.51073557
 C     32  30  28     1.463552402376   119.38840665   351.94248949
 H     33  32  30     1.080742864052   116.97552114   172.49145547
 C     33  32  30     1.329986876025   122.03897206   352.87035888
 H     35  33  32     1.083511359054   119.96180453   180.71336286
 C     35  33  32     1.496844989637   122.73551863     2.90908708
 H     37  35  33     1.092814360356   107.93798988   130.33323943
 O     37  35  33     1.419059465597   108.90358587   249.24140169
 H     39  37  35     0.991805494137   110.53868855   191.58711317
 C     32  30  28     1.514719556783   119.59304532   160.78717818
 O     41  32  30     1.249000571697   118.72410168    29.11367197
 O     41  32  30     1.255172446160   115.15106448   213.59244718

---------------------------
INTERNAL COORDINATES (A.U.)
---------------------------
 H      0   0   0     0.000000000000     0.00000000     0.00000000
 C      1   0   0     2.040904224634     0.00000000     0.00000000
 H      2   1   0     2.068364287209   106.87205777     0.00000000
 H      2   1   3     2.066778294158   109.66991356   245.43754255
 C      2   1   3     2.862067520076   118.59491010   122.67247955
 H      5   2   1     2.065323899711   109.82881486    70.79641010
 H      5   2   1     2.059628223741   110.16843956   312.52110810
 C      5   2   1     2.888399608371   109.51197979   190.57366600
 H      8   5   2     2.052963124629   110.50346669    76.90659608
 H      8   5   2     2.056814312525   109.28096654   319.63053924
 N      8   5   2     2.752872210802   115.11285782   201.73149329
 H     11   8   5     1.927358041863   119.10531654   125.16508084
 C     11   8   5     2.499909934871   126.44143435   301.01501320
 N     13  11   8     2.537299795434   120.31811319   352.78658664
 H     14  13  11     1.942864882568   110.62358978   313.04493215
 H     14  13  11     1.902768245584   113.38160953   187.30651683
 N     13  11   8     2.502262263026   118.42160825   170.81680244
 H     17  13  11     1.912549975721   121.35142117   182.62056992
 H     17  13  11     1.912639727675   117.68588677     9.37789037
 C     15  14  13     7.745237965698   110.14100672   267.22577715
 H     20  15  14     2.041709624911   117.68327119     5.75157528
 H     20  15  14     2.039613152655   113.84837432   219.33126513
 C     20  15  14     2.501482554185    31.13502546   110.65404973
 C     23  20  15     2.866681612474   120.56958149    83.77059880
 O     24  23  20     2.331919945521   118.92006263    30.26784561
 O     24  23  20     2.403763783893   115.24879348   211.62684271
 O     23  20  15     2.594001428499   121.44531616   270.04043214
 C     27  23  20     2.749279749649   119.27698524   267.78626296
 H     28  27  23     2.056629281255   103.46778320   165.35221187
 C     28  27  23     2.810780078100   107.86835034    48.19269652
 H     30  28  27     2.039234511000   117.99496664    68.92134196
 C     30  28  27     2.509011476797   121.72789377   260.51073557
 C     32  30  28     2.765713223133   119.38840665   351.94248949
 H     33  32  30     2.042308034249   116.97552114   172.49145547
 C     33  32  30     2.513310957398   122.03897206   352.87035888
 H     35  33  32     2.047539731606   119.96180453   180.71336286
 C     35  33  32     2.828627095345   122.73551863     2.90908708
 H     37  35  33     2.065119856289   107.93798988   130.33323943
 O     37  35  33     2.681633757727   108.90358587   249.24140169
 H     39  37  35     1.874240762037   110.53868855   191.58711317
 C     32  30  28     2.862405132014   119.59304532   160.78717818
 O     41  32  30     2.360269021619   118.72410168    29.11367197
 O     41  32  30     2.371932174087   115.15106448   213.59244718

---------------------
BASIS SET INFORMATION
---------------------
There are 4 groups of distinct atoms

 Group   1 Type H   : 6s3p2d1f contracted to 4s3p2d1f pattern {3111/111/11/1}
 Group   2 Type C   : 21s6p3d2f1g contracted to 5s4p3d2f1g pattern {99111/3111/111/11/1}
 Group   3 Type N   : 21s6p3d2f1g contracted to 5s4p3d2f1g pattern {99111/3111/111/11/1}
 Group   4 Type O   : 21s6p3d2f1g contracted to 5s4p3d2f1g pattern {99111/3111/111/11/1}

Atom   0H    basis set group =>   1
Atom   1C    basis set group =>   2
Atom   2H    basis set group =>   1
Atom   3H    basis set group =>   1
Atom   4C    basis set group =>   2
Atom   5H    basis set group =>   1
Atom   6H    basis set group =>   1
Atom   7C    basis set group =>   2
Atom   8H    basis set group =>   1
Atom   9H    basis set group =>   1
Atom  10N    basis set group =>   3
Atom  11H    basis set group =>   1
Atom  12C    basis set group =>   2
Atom  13N    basis set group =>   3
Atom  14H    basis set group =>   1
Atom  15H    basis set group =>   1
Atom  16N    basis set group =>   3
Atom  17H    basis set group =>   1
Atom  18H    basis set group =>   1
Atom  19C    basis set group =>   2
Atom  20H    basis set group =>   1
Atom  21H    basis set group =>   1
Atom  22C    basis set group =>   2
Atom  23C    basis set group =>   2
Atom  24O    basis set group =>   4
Atom  25O    basis set group =>   4
Atom  26O    basis set group =>   4
Atom  27C    basis set group =>   2
Atom  28H    basis set group =>   1
Atom  29C    basis set group =>   2
Atom  30H    basis set group =>   1
Atom  31C    basis set group =>   2
Atom  32C    basis set group =>   2
Atom  33H    basis set group =>   1
Atom  34C    basis set group =>   2
Atom  35H    basis set group =>   1
Atom  36C    basis set group =>   2
Atom  37H    basis set group =>   1
Atom  38O    basis set group =>   4
Atom  39H    basis set group =>   1
Atom  40C    basis set group =>   2
Atom  41O    basis set group =>   4
Atom  42O    basis set group =>   4
---------------------------------
AUXILIARY/C BASIS SET INFORMATION
---------------------------------
There are 4 groups of distinct atoms

 Group   1 Type H   : 5s4p3d2f1g contracted to 5s4p3d2f1g pattern {11111/1111/111/11/1}
 Group   2 Type C   : 8s7p6d5f3g1h contracted to 8s7p6d5f3g1h pattern {11111111/1111111/111111/11111/111/1}
 Group   3 Type N   : 8s7p6d5f3g1h contracted to 8s7p6d5f3g1h pattern {11111111/1111111/111111/11111/111/1}
 Group   4 Type O   : 8s7p6d5f3g1h contracted to 8s7p6d5f3g1h pattern {11111111/1111111/111111/11111/111/1}

Atom   0H    basis set group =>   1
Atom   1C    basis set group =>   2
Atom   2H    basis set group =>   1
Atom   3H    basis set group =>   1
Atom   4C    basis set group =>   2
Atom   5H    basis set group =>   1
Atom   6H    basis set group =>   1
Atom   7C    basis set group =>   2
Atom   8H    basis set group =>   1
Atom   9H    basis set group =>   1
Atom  10N    basis set group =>   3
Atom  11H    basis set group =>   1
Atom  12C    basis set group =>   2
Atom  13N    basis set group =>   3
Atom  14H    basis set group =>   1
Atom  15H    basis set group =>   1
Atom  16N    basis set group =>   3
Atom  17H    basis set group =>   1
Atom  18H    basis set group =>   1
Atom  19C    basis set group =>   2
Atom  20H    basis set group =>   1
Atom  21H    basis set group =>   1
Atom  22C    basis set group =>   2
Atom  23C    basis set group =>   2
Atom  24O    basis set group =>   4
Atom  25O    basis set group =>   4
Atom  26O    basis set group =>   4
Atom  27C    basis set group =>   2
Atom  28H    basis set group =>   1
Atom  29C    basis set group =>   2
Atom  30H    basis set group =>   1
Atom  31C    basis set group =>   2
Atom  32C    basis set group =>   2
Atom  33H    basis set group =>   1
Atom  34C    basis set group =>   2
Atom  35H    basis set group =>   1
Atom  36C    basis set group =>   2
Atom  37H    basis set group =>   1
Atom  38O    basis set group =>   4
Atom  39H    basis set group =>   1
Atom  40C    basis set group =>   2
Atom  41O    basis set group =>   4
Atom  42O    basis set group =>   4


           ************************************************************
           *        Program running with 16 parallel MPI-processes    *
           *              working on a common directory               *
           ************************************************************
------------------------------------------------------------------------------
                           ORCA GTO INTEGRAL CALCULATION
------------------------------------------------------------------------------
------------------------------------------------------------------------------
                   ___                                                        
                  /   \      - P O W E R E D   B Y -                         
                 /     \                                                     
                 |  |  |   _    _      __       _____    __    __             
                 |  |  |  | |  | |    /  \     |  _  \  |  |  /  |          
                  \  \/   | |  | |   /    \    | | | |  |  | /  /          
                 / \  \   | |__| |  /  /\  \   | |_| |  |  |/  /          
                |  |  |   |  __  | /  /__\  \  |    /   |      \           
                |  |  |   | |  | | |   __   |  |    \   |  |\   \          
                \     /   | |  | | |  |  |  |  | |\  \  |  | \   \       
                 \___/    |_|  |_| |__|  |__|  |_| \__\ |__|  \__/        
                                                                              
                      - O R C A' S   B I G   F R I E N D -                    
                                      &                                       
                       - I N T E G R A L  F E E D E R -                       
                                                                              
 v1 FN, 2020, v2 2021                                                         
------------------------------------------------------------------------------


Reading SHARK input file input.SHARKINP.tmp ... ok
----------------------
SHARK INTEGRAL PACKAGE
----------------------

Number of atoms                             ...     43
Number of basis functions                   ...   2026
Number of shells                            ...    706
Maximum angular momentum                    ...      4
Integral batch strategy                     ... SHARK/LIBINT Hybrid
RI-J (if used) integral strategy            ... SPLIT-RIJ (Revised 2003 algorithm where possible)
Printlevel                                  ...      1
Contraction scheme used                     ... PARTIAL GENERAL contraction
Coulomb Range Separation                    ... NOT USED
Exchange Range Separation                   ... NOT USED
Finite Nucleus Model                        ... NOT USED
Auxiliary Coulomb fitting basis             ... NOT available
Auxiliary J/K fitting basis                 ... NOT available
Auxiliary Correlation fitting basis         ... AVAILABLE
   # of basis functions in Aux-C            ...   4136
   # of shells in Aux-C                     ...    990
   Maximum angular momentum in Aux-C        ...      5
Auxiliary 'external' fitting basis          ... NOT available
Integral threshold                          ...     2.500000e-11
Primitive cut-off                           ...     2.500000e-12
Primitive pair pre-selection threshold      ...     2.500000e-12

Calculating pre-screening integrals         ... done (  0.3 sec) Dimension = 706
Calculating pre-screening integrals (ORCA)  ... done (  0.7 sec) Dimension = 545
Organizing shell pair data                  ... done (  4.8 sec)
Shell pair information
Total number of shell pairs                 ...    249571
Shell pairs after pre-screening             ...    120565
Total number of primitive shell pairs       ...    314157
Primitive shell pairs kept                  ...    136584
          la=0 lb=0:  25100 shell pairs
          la=1 lb=0:  28449 shell pairs
          la=1 lb=1:   7580 shell pairs
          la=2 lb=0:  17832 shell pairs
          la=2 lb=1:  10032 shell pairs
          la=2 lb=2:   3374 shell pairs
          la=3 lb=0:   9915 shell pairs
          la=3 lb=1:   5776 shell pairs
          la=3 lb=2:   3781 shell pairs
          la=3 lb=3:   1103 shell pairs
          la=4 lb=0:   3403 shell pairs
          la=4 lb=1:   2008 shell pairs
          la=4 lb=2:   1316 shell pairs
          la=4 lb=3:    754 shell pairs
          la=4 lb=4:    142 shell pairs

Calculating one electron integrals          ... done (  0.2 sec)
Calculating RI/C V-Matrix + Cholesky decomp.... done (  0.7 sec)
Calculating Nuclear repulsion               ... done (  0.0 sec) ENN=   2095.063415346290 Eh

SHARK setup successfully completed in  43.9 seconds

Maximum memory used throughout the entire GTOINT-calculation: 179.8 MB


           ************************************************************
           *        Program running with 16 parallel MPI-processes    *
           *              working on a common directory               *
           ************************************************************
-------------------------------------------------------------------------------
                                 ORCA SCF
-------------------------------------------------------------------------------

------------
SCF SETTINGS
------------
Hamiltonian:
 Ab initio Hamiltonian  Method          .... Hartree-Fock(GTOs)


General Settings:
 Integral files         IntName         .... input
 Hartree-Fock type      HFTyp           .... RHF
 Total Charge           Charge          ....   -1
 Multiplicity           Mult            ....    1
 Number of Electrons    NEL             ....  174
 Basis Dimension        Dim             .... 1865
 Nuclear Repulsion      ENuc            ....   2095.0634153463 Eh

Convergence Acceleration:
 DIIS                   CNVDIIS         .... on
   Start iteration      DIISMaxIt       ....    12
   Startup error        DIISStart       ....  0.200000
   # of expansion vecs  DIISMaxEq       ....     5
   Bias factor          DIISBfac        ....   1.050
   Max. coefficient     DIISMaxC        ....  10.000
 Trust-Rad. Augm. Hess. CNVTRAH         .... auto
   Auto Start mean grad. ratio tolernc. ....  1.125000
   Auto Start start iteration           ....    20
   Auto Start num. interpolation iter.  ....    10
   Max. Number of Micro iterations      ....    16
   Max. Number of Macro iterations      .... Maxiter - #DIIS iter
   Number of Davidson start vectors     ....     2
   Converg. threshold I  (grad. norm)   ....   1.000e-05
   Converg. threshold II (energy diff.) ....   1.000e-08
   Grad. Scal. Fac. for Micro threshold ....   0.100
   Minimum threshold for Micro iter.    ....   0.010
   NR start threshold (gradient norm)   ....   0.001
   Initial trust radius                 ....   0.400
   Minimum AH scaling param. (alpha)    ....   1.000
   Maximum AH scaling param. (alpha)    .... 1000.000
   Orbital update algorithm             .... Taylor
   White noise on init. David. guess    .... on
   Maximum white noise                  ....   0.010
   Quad. conv. algorithm                .... NR
 SOSCF                  CNVSOSCF        .... on
   Start iteration      SOSCFMaxIt      ....   150
   Startup grad/error   SOSCFStart      ....  0.003300
 Level Shifting         CNVShift        .... on
   Level shift para.    LevelShift      ....    0.2500
   Turn off err/grad.   ShiftErr        ....    0.0010
 Zerner damping         CNVZerner       .... off
 Static damping         CNVDamp         .... on
   Fraction old density DampFac         ....    0.7000
   Max. Damping (<1)    DampMax         ....    0.9800
   Min. Damping (>=0)   DampMin         ....    0.0000
   Turn off err/grad.   DampErr         ....    0.1000
 Fernandez-Rico         CNVRico         .... off

SCF Procedure:
 Maximum # iterations   MaxIter         ....   125
 SCF integral mode      SCFMode         .... Direct
   Integral package                     .... SHARK and LIBINT hybrid scheme
 Reset frequency        DirectResetFreq ....    20
 Integral Threshold     Thresh          ....  2.500e-11 Eh
 Primitive CutOff       TCut            ....  2.500e-12 Eh

Convergence Tolerance:
 Convergence Check Mode ConvCheckMode   .... Total+1el-Energy
 Convergence forced     ConvForced      .... 1
 Energy Change          TolE            ....  1.000e-08 Eh
 1-El. energy change                    ....  1.000e-05 Eh
 Orbital Gradient       TolG            ....  1.000e-05
 Orbital Rotation angle TolX            ....  1.000e-05
 DIIS Error             TolErr          ....  5.000e-07


Diagonalization of the overlap matrix:
Smallest eigenvalue                        ... 7.245e-06
Time for diagonalization                   ...    0.368 sec
Threshold for overlap eigenvalues          ... 1.000e-08
Number of eigenvalues below threshold      ... 0
Time for construction of square roots      ...    0.355 sec
Total time needed                          ...    0.744 sec

Time for model grid setup =    4.313 sec

------------------------------
INITIAL GUESS: MODEL POTENTIAL
------------------------------
Loading Hartree-Fock densities                     ... done
Calculating cut-offs                               ... done
Initializing the effective Hamiltonian             ... done
Setting up the integral package (SHARK)            ... done
Starting the Coulomb interaction                   ... done (   0.9 sec)
Reading the grid                                   ... done
Mapping shells                                     ... done
Starting the XC term evaluation                    ... done (   0.3 sec)
Transforming the Hamiltonian                       ... done (   0.3 sec)
Diagonalizing the Hamiltonian                      ... done (   0.4 sec)
Back transforming the eigenvectors                 ... done (   0.1 sec)
Now organizing SCF variables                       ... done
                      ------------------
                      INITIAL GUESS DONE (   6.8 sec)
                      ------------------
--------------
SCF ITERATIONS
--------------
ITER       Energy         Delta-E        Max-DP      RMS-DP      [F,P]     Damp
               ***  Starting incremental Fock matrix formation  ***
  0  -1153.5427941749   0.000000000000 0.17440704  0.00044931  0.3830243 0.7000
  1  -1153.9669352603  -0.424141085361 0.20440315  0.00044896  0.2324670 0.7000
                               ***Turning on DIIS***
  2  -1154.2196595462  -0.252724285889 0.12740815  0.00029458  0.1338330 0.7000
  3  -1156.9769660249  -2.757306478707 0.14774258  0.00047382  0.0786255 0.0000
  4  -1154.6567642585   2.320201766398 0.07352627  0.00012786  0.0077155 0.0000
  5  -1154.7609962182  -0.104231959776 0.02618805  0.00005605  0.0040565 0.0000
                      *** Initiating the SOSCF procedure ***
                           *** Shutting down DIIS ***
                      *** Re-Reading the Fockian *** 
                      *** Removing any level shift *** 
ITER      Energy       Delta-E        Grad      Rot      Max-DP    RMS-DP
  6  -1154.73011785   0.0308783657  0.001355  0.001355  0.013200  0.000031
               *** Restarting incremental Fock matrix formation ***
  7  -1154.74919137  -0.0190735218  0.000697  0.001362  0.007313  0.000020
  8  -1154.74922345  -0.0000320804  0.000273  0.001230  0.004058  0.000014
  9  -1154.74923344  -0.0000099886  0.000045  0.000142  0.001378  0.000004
 10  -1154.74923422  -0.0000007811  0.000029  0.000056  0.000312  0.000001
 11  -1154.74923429  -0.0000000653  0.000007  0.000029  0.000121  0.000000
 12  -1154.74923431  -0.0000000197  0.000006  0.000013  0.000058  0.000000
                  ***Gradient check signals convergence***
              ***Rediagonalizing the Fockian in SOSCF/NRSCF***

               *****************************************************
               *                     SUCCESS                       *
               *           SCF CONVERGED AFTER  13 CYCLES          *
               *****************************************************


----------------
TOTAL SCF ENERGY
----------------

Total Energy       :        -1154.74923433 Eh          -31422.32415 eV

Components:
Nuclear Repulsion  :         2095.06341535 Eh           57009.57384 eV
Electronic Energy  :        -3249.81264968 Eh          -88431.89799 eV
One Electron Energy:        -5770.08755251 Eh         -157012.06464 eV
Two Electron Energy:         2520.27490283 Eh           68580.16665 eV

Virial components:
Potential Energy   :        -2308.66886387 Eh          -62822.07360 eV
Kinetic Energy     :         1153.91962954 Eh           31399.74945 eV
Virial Ratio       :            2.00071895


---------------
SCF CONVERGENCE
---------------

  Last Energy change         ...   -2.0216e-08  Tolerance :   1.0000e-08
  Last MAX-Density change    ...    4.1812e-05  Tolerance :   1.0000e-07
  Last RMS-Density change    ...    9.0430e-08  Tolerance :   5.0000e-09
  Last Orbital Gradient      ...    1.4841e-06  Tolerance :   1.0000e-05
  Last Orbital Rotation      ...    3.3875e-06  Tolerance :   1.0000e-05

             **** THE GBW FILE WAS UPDATED (input.gbw) ****
             **** DENSITY input.scfp WAS UPDATED ****
             **** ENERGY FILE WAS UPDATED (input.en.tmp) ****
             **** THE GBW FILE WAS UPDATED (input.gbw) ****
             **** DENSITY input.scfp WAS UPDATED ****
----------------
ORBITAL ENERGIES
----------------

  NO   OCC          E(Eh)            E(eV) 
   0   2.0000     -20.476502      -557.1939 
   1   2.0000     -20.451095      -556.5026 
   2   2.0000     -20.347406      -553.6811 
   3   2.0000     -20.331063      -553.2364 
   4   2.0000     -20.288577      -552.0803 
   5   2.0000     -20.287730      -552.0572 
   6   2.0000     -15.585474      -424.1023 
   7   2.0000     -15.576208      -423.8502 
   8   2.0000     -15.535371      -422.7389 
   9   2.0000     -11.369805      -309.3881 
  10   2.0000     -11.221880      -305.3629 
  11   2.0000     -11.182491      -304.2911 
  12   2.0000     -11.180368      -304.2333 
  13   2.0000     -11.179584      -304.2119 
  14   2.0000     -11.175218      -304.0931 
  15   2.0000     -11.170873      -303.9749 
  16   2.0000     -11.144457      -303.2561 
  17   2.0000     -11.138097      -303.0830 
  18   2.0000     -11.095913      -301.9352 
  19   2.0000     -11.092555      -301.8438 
  20   2.0000     -11.084397      -301.6218 
  21   2.0000     -11.084047      -301.6123 
  22   2.0000     -11.080293      -301.5101 
  23   2.0000      -1.331043       -36.2195 
  24   2.0000      -1.282271       -34.8924 
  25   2.0000      -1.269130       -34.5348 
  26   2.0000      -1.221802       -33.2469 
  27   2.0000      -1.197995       -32.5991 
  28   2.0000      -1.175068       -31.9752 
  29   2.0000      -1.167889       -31.7799 
  30   2.0000      -1.119370       -30.4596 
  31   2.0000      -1.067430       -29.0463 
  32   2.0000      -1.023453       -27.8496 
  33   2.0000      -0.998351       -27.1665 
  34   2.0000      -0.917215       -24.9587 
  35   2.0000      -0.911432       -24.8013 
  36   2.0000      -0.888108       -24.1666 
  37   2.0000      -0.860050       -23.4032 
  38   2.0000      -0.825761       -22.4701 
  39   2.0000      -0.778316       -21.1790 
  40   2.0000      -0.755014       -20.5450 
  41   2.0000      -0.746666       -20.3178 
  42   2.0000      -0.728384       -19.8203 
  43   2.0000      -0.698950       -19.0194 
  44   2.0000      -0.690947       -18.8016 
  45   2.0000      -0.643409       -17.5080 
  46   2.0000      -0.634672       -17.2703 
  47   2.0000      -0.615264       -16.7422 
  48   2.0000      -0.608015       -16.5449 
  49   2.0000      -0.603725       -16.4282 
  50   2.0000      -0.599316       -16.3082 
  51   2.0000      -0.579662       -15.7734 
  52   2.0000      -0.570881       -15.5345 
  53   2.0000      -0.557572       -15.1723 
  54   2.0000      -0.543190       -14.7810 
  55   2.0000      -0.527210       -14.3461 
  56   2.0000      -0.519364       -14.1326 
  57   2.0000      -0.513208       -13.9651 
  58   2.0000      -0.500324       -13.6145 
  59   2.0000      -0.489163       -13.3108 
  60   2.0000      -0.483091       -13.1456 
  61   2.0000      -0.471801       -12.8384 
  62   2.0000      -0.463776       -12.6200 
  63   2.0000      -0.450392       -12.2558 
  64   2.0000      -0.447811       -12.1856 
  65   2.0000      -0.442468       -12.0402 
  66   2.0000      -0.440655       -11.9908 
  67   2.0000      -0.434701       -11.8288 
  68   2.0000      -0.418980       -11.4010 
  69   2.0000      -0.412952       -11.2370 
  70   2.0000      -0.404380       -11.0037 
  71   2.0000      -0.399042       -10.8585 
  72   2.0000      -0.388371       -10.5681 
  73   2.0000      -0.381424       -10.3791 
  74   2.0000      -0.375402       -10.2152 
  75   2.0000      -0.365097        -9.9348 
  76   2.0000      -0.351114        -9.5543 
  77   2.0000      -0.316545        -8.6136 
  78   2.0000      -0.289459        -7.8766 
  79   2.0000      -0.271483        -7.3874 
  80   2.0000      -0.253965        -6.9107 
  81   2.0000      -0.248669        -6.7666 
  82   2.0000      -0.220112        -5.9895 
  83   2.0000      -0.216184        -5.8827 
  84   2.0000      -0.209731        -5.7071 
  85   2.0000      -0.193215        -5.2577 
  86   2.0000      -0.179163        -4.8753 
  87   0.0000       0.115407         3.1404 
  88   0.0000       0.149291         4.0624 
  89   0.0000       0.158763         4.3202 
  90   0.0000       0.179020         4.8714 
  91   0.0000       0.187135         5.0922 
  92   0.0000       0.199332         5.4241 
  93   0.0000       0.203523         5.5381 
  94   0.0000       0.222542         6.0557 
  95   0.0000       0.227800         6.1988 
  96   0.0000       0.231653         6.3036 
  97   0.0000       0.241855         6.5812 
  98   0.0000       0.248830         6.7710 
  99   0.0000       0.251414         6.8413 
 100   0.0000       0.257556         7.0084 
 101   0.0000       0.265871         7.2347 
 102   0.0000       0.270785         7.3684 
 103   0.0000       0.280479         7.6322 
 104   0.0000       0.286788         7.8039 
 105   0.0000       0.297384         8.0922 
 106   0.0000       0.306665         8.3448 
 107   0.0000       0.312868         8.5136 
 108   0.0000       0.313161         8.5216 
 109   0.0000       0.327258         8.9051 
 110   0.0000       0.336415         9.1543 
 111   0.0000       0.339003         9.2247 
 112   0.0000       0.346003         9.4152 
 113   0.0000       0.348735         9.4896 
 114   0.0000       0.360265         9.8033 
 115   0.0000       0.361548         9.8382 
 116   0.0000       0.373388        10.1604 
 117   0.0000       0.384580        10.4650 
 118   0.0000       0.385993        10.5034 
 119   0.0000       0.394188        10.7264 
 120   0.0000       0.397432        10.8147 
 121   0.0000       0.402840        10.9618 
 122   0.0000       0.407792        11.0966 
 123   0.0000       0.415939        11.3183 
 124   0.0000       0.419582        11.4174 
 125   0.0000       0.424577        11.5533 
 126   0.0000       0.424993        11.5646 
 127   0.0000       0.433217        11.7884 
 128   0.0000       0.443649        12.0723 
 129   0.0000       0.448499        12.2043 
 130   0.0000       0.450117        12.2483 
 131   0.0000       0.456655        12.4262 
 132   0.0000       0.463199        12.6043 
 133   0.0000       0.473141        12.8748 
 134   0.0000       0.474206        12.9038 
 135   0.0000       0.479811        13.0563 
 136   0.0000       0.483536        13.1577 
 137   0.0000       0.488437        13.2911 
 138   0.0000       0.490930        13.3589 
 139   0.0000       0.496057        13.4984 
 140   0.0000       0.497435        13.5359 
 141   0.0000       0.502388        13.6707 
 142   0.0000       0.507884        13.8202 
 143   0.0000       0.510730        13.8977 
 144   0.0000       0.517277        14.0758 
 145   0.0000       0.521101        14.1799 
 146   0.0000       0.524953        14.2847 
 147   0.0000       0.530970        14.4484 
 148   0.0000       0.537349        14.6220 
 149   0.0000       0.539583        14.6828 
 150   0.0000       0.541262        14.7285 
 151   0.0000       0.547956        14.9106 
 152   0.0000       0.551567        15.0089 
 153   0.0000       0.553788        15.0693 
 154   0.0000       0.556915        15.1544 
 155   0.0000       0.562584        15.3087 
 156   0.0000       0.569415        15.4946 
 157   0.0000       0.574026        15.6201 
 158   0.0000       0.574684        15.6380 
 159   0.0000       0.577865        15.7245 
 160   0.0000       0.579736        15.7754 
 161   0.0000       0.583092        15.8667 
 162   0.0000       0.588583        16.0161 
 163   0.0000       0.595017        16.1912 
 164   0.0000       0.601737        16.3741 
 165   0.0000       0.604812        16.4578 
 166   0.0000       0.606272        16.4975 
 167   0.0000       0.613126        16.6840 
 168   0.0000       0.617770        16.8104 
 169   0.0000       0.621398        16.9091 
 170   0.0000       0.627355        17.0712 
 171   0.0000       0.632836        17.2203 
 172   0.0000       0.637634        17.3509 
 173   0.0000       0.638401        17.3718 
 174   0.0000       0.643133        17.5005 
 175   0.0000       0.647784        17.6271 
 176   0.0000       0.653419        17.7804 
 177   0.0000       0.657947        17.9036 
 178   0.0000       0.659441        17.9443 
 179   0.0000       0.665766        18.1164 
 180   0.0000       0.671610        18.2754 
 181   0.0000       0.677378        18.4324 
 182   0.0000       0.680130        18.5073 
 183   0.0000       0.680766        18.5246 
 184   0.0000       0.685941        18.6654 
 185   0.0000       0.692940        18.8559 
 186   0.0000       0.696128        18.9426 
 187   0.0000       0.700880        19.0719 
 188   0.0000       0.708397        19.2765 
 189   0.0000       0.714015        19.4293 
 190   0.0000       0.718247        19.5445 
 191   0.0000       0.725788        19.7497 
 192   0.0000       0.731686        19.9102 
 193   0.0000       0.733695        19.9648 
 194   0.0000       0.738893        20.1063 
 195   0.0000       0.750076        20.4106 
 196   0.0000       0.756106        20.5747 
 197   0.0000       0.758454        20.6386 
 198   0.0000       0.763322        20.7710 
 199   0.0000       0.765935        20.8422 
 200   0.0000       0.768378        20.9086 
 201   0.0000       0.777829        21.1658 
 202   0.0000       0.781375        21.2623 
 203   0.0000       0.786573        21.4038 
 204   0.0000       0.790832        21.5196 
 205   0.0000       0.799159        21.7462 
 206   0.0000       0.805847        21.9282 
 207   0.0000       0.811735        22.0884 
 208   0.0000       0.816186        22.2095 
 209   0.0000       0.823091        22.3974 
 210   0.0000       0.827035        22.5048 
 211   0.0000       0.830983        22.6122 
 212   0.0000       0.841189        22.8899 
 213   0.0000       0.841798        22.9065 
 214   0.0000       0.844665        22.9845 
 215   0.0000       0.854127        23.2420 
 216   0.0000       0.858176        23.3521 
 217   0.0000       0.860130        23.4053 
 218   0.0000       0.863276        23.4909 
 219   0.0000       0.866988        23.5919 
 220   0.0000       0.872212        23.7341 
 221   0.0000       0.875020        23.8105 
 222   0.0000       0.879999        23.9460 
 223   0.0000       0.882734        24.0204 
 224   0.0000       0.886141        24.1131 
 225   0.0000       0.889695        24.2098 
 226   0.0000       0.894078        24.3291 
 227   0.0000       0.900105        24.4931 
 228   0.0000       0.902025        24.5453 
 229   0.0000       0.910120        24.7656 
 230   0.0000       0.913021        24.8446 
 231   0.0000       0.915477        24.9114 
 232   0.0000       0.922509        25.1027 
 233   0.0000       0.926320        25.2064 
 234   0.0000       0.928144        25.2561 
 235   0.0000       0.931061        25.3355 
 236   0.0000       0.935816        25.4648 
 237   0.0000       0.947979        25.7958 
 238   0.0000       0.949478        25.8366 
 239   0.0000       0.954080        25.9618 
 240   0.0000       0.958708        26.0878 
 241   0.0000       0.959777        26.1169 
 242   0.0000       0.966289        26.2941 
 243   0.0000       0.971589        26.4383 
 244   0.0000       0.975271        26.5385 
 245   0.0000       0.982148        26.7256 
 246   0.0000       0.985538        26.8178 
 247   0.0000       0.989229        26.9183 
 248   0.0000       0.997675        27.1481 
 249   0.0000       1.003426        27.3046 
 250   0.0000       1.006669        27.3929 
 251   0.0000       1.017111        27.6770 
 252   0.0000       1.018451        27.7135 
 253   0.0000       1.026043        27.9201 
 254   0.0000       1.031314        28.0635 
 255   0.0000       1.036511        28.2049 
 256   0.0000       1.036909        28.2157 
 257   0.0000       1.042382        28.3647 
 258   0.0000       1.046221        28.4691 
 259   0.0000       1.050844        28.5949 
 260   0.0000       1.054532        28.6953 
 261   0.0000       1.055237        28.7144 
 262   0.0000       1.061174        28.8760 
 263   0.0000       1.068376        29.0720 
 264   0.0000       1.072345        29.1800 
 265   0.0000       1.076417        29.2908 
 266   0.0000       1.081258        29.4225 
 267   0.0000       1.086819        29.5738 
 268   0.0000       1.091018        29.6881 
 269   0.0000       1.095183        29.8015 
 270   0.0000       1.096796        29.8453 
 271   0.0000       1.105732        30.0885 
 272   0.0000       1.108776        30.1713 
 273   0.0000       1.111649        30.2495 
 274   0.0000       1.118600        30.4387 
 275   0.0000       1.122751        30.5516 
 276   0.0000       1.126427        30.6516 
 277   0.0000       1.131031        30.7769 
 278   0.0000       1.135851        30.9081 
 279   0.0000       1.139359        31.0035 
 280   0.0000       1.142366        31.0854 
 281   0.0000       1.146722        31.2039 
 282   0.0000       1.147822        31.2338 
 283   0.0000       1.152946        31.3733 
 284   0.0000       1.156448        31.4685 
 285   0.0000       1.161648        31.6101 
 286   0.0000       1.164245        31.6807 
 287   0.0000       1.175558        31.9885 
 288   0.0000       1.178221        32.0610 
 289   0.0000       1.179606        32.0987 
 290   0.0000       1.183921        32.2161 
 291   0.0000       1.184896        32.2427 
 292   0.0000       1.196153        32.5490 
 293   0.0000       1.197823        32.5944 
 294   0.0000       1.205406        32.8008 
 295   0.0000       1.207984        32.8709 
 296   0.0000       1.212877        33.0041 
 297   0.0000       1.217585        33.1322 
 298   0.0000       1.222625        33.2693 
 299   0.0000       1.225458        33.3464 
 300   0.0000       1.231394        33.5079 
 301   0.0000       1.234589        33.5949 
 302   0.0000       1.238780        33.7089 
 303   0.0000       1.242958        33.8226 
 304   0.0000       1.247577        33.9483 
 305   0.0000       1.250117        34.0174 
 306   0.0000       1.256299        34.1856 
 307   0.0000       1.260556        34.3015 
 308   0.0000       1.262201        34.3462 
 309   0.0000       1.266144        34.4535 
 310   0.0000       1.276516        34.7358 
 311   0.0000       1.278640        34.7936 
 312   0.0000       1.283311        34.9207 
 313   0.0000       1.284502        34.9531 
 314   0.0000       1.293129        35.1878 
 315   0.0000       1.294362        35.2214 
 316   0.0000       1.299698        35.3666 
 317   0.0000       1.307613        35.5820 
 318   0.0000       1.309157        35.6240 
 319   0.0000       1.316364        35.8201 
 320   0.0000       1.318082        35.8668 
 321   0.0000       1.323085        36.0030 
 322   0.0000       1.326191        36.0875 
 323   0.0000       1.334218        36.3059 
 324   0.0000       1.337354        36.3912 
 325   0.0000       1.342847        36.5407 
 326   0.0000       1.345383        36.6097 
 327   0.0000       1.353092        36.8195 
 328   0.0000       1.356940        36.9242 
 329   0.0000       1.362539        37.0766 
 330   0.0000       1.363940        37.1147 
 331   0.0000       1.369881        37.2763 
 332   0.0000       1.371577        37.3225 
 333   0.0000       1.384231        37.6668 
 334   0.0000       1.387203        37.7477 
 335   0.0000       1.388684        37.7880 
 336   0.0000       1.396652        38.0048 
 337   0.0000       1.400450        38.1082 
 338   0.0000       1.407653        38.3042 
 339   0.0000       1.412877        38.4463 
 340   0.0000       1.416358        38.5411 
 341   0.0000       1.422021        38.6951 
 342   0.0000       1.426800        38.8252 
 343   0.0000       1.430526        38.9266 
 344   0.0000       1.434791        39.0427 
 345   0.0000       1.442581        39.2546 
 346   0.0000       1.449612        39.4459 
 347   0.0000       1.451111        39.4867 
 348   0.0000       1.461397        39.7666 
 349   0.0000       1.471032        40.0288 
 350   0.0000       1.472540        40.0699 
 351   0.0000       1.475151        40.1409 
 352   0.0000       1.478760        40.2391 
 353   0.0000       1.487551        40.4783 
 354   0.0000       1.497597        40.7517 
 355   0.0000       1.503567        40.9141 
 356   0.0000       1.507851        41.0307 
 357   0.0000       1.511238        41.1229 
 358   0.0000       1.520348        41.3708 
 359   0.0000       1.526469        41.5373 
 360   0.0000       1.531310        41.6691 
 361   0.0000       1.535294        41.7775 
 362   0.0000       1.539421        41.8898 
 363   0.0000       1.545388        42.0521 
 364   0.0000       1.558250        42.4021 
 365   0.0000       1.565872        42.6095 
 366   0.0000       1.575934        42.8833 
 367   0.0000       1.580097        42.9966 
 368   0.0000       1.583506        43.0894 
 369   0.0000       1.598465        43.4964 
 370   0.0000       1.607999        43.7559 
 371   0.0000       1.616876        43.9974 
 372   0.0000       1.626212        44.2515 
 373   0.0000       1.628305        44.3084 
 374   0.0000       1.639291        44.6074 
 375   0.0000       1.646601        44.8063 
 376   0.0000       1.651878        44.9499 
 377   0.0000       1.662308        45.2337 
 378   0.0000       1.671520        45.4844 
 379   0.0000       1.672669        45.5156 
 380   0.0000       1.681965        45.7686 
 381   0.0000       1.690408        45.9983 
 382   0.0000       1.699009        46.2324 
 383   0.0000       1.703929        46.3663 
 384   0.0000       1.707333        46.4589 
 385   0.0000       1.714730        46.6602 
 386   0.0000       1.721893        46.8551 
 387   0.0000       1.725443        46.9517 
 388   0.0000       1.734873        47.2083 
 389   0.0000       1.736441        47.2510 
 390   0.0000       1.743355        47.4391 
 391   0.0000       1.749469        47.6055 
 392   0.0000       1.761704        47.9384 
 393   0.0000       1.771157        48.1956 
 394   0.0000       1.774600        48.2893 
 395   0.0000       1.785751        48.5927 
 396   0.0000       1.789015        48.6816 
 397   0.0000       1.794858        48.8406 
 398   0.0000       1.803944        49.0878 
 399   0.0000       1.807002        49.1710 
 400   0.0000       1.809541        49.2401 
 401   0.0000       1.818900        49.4948 
 402   0.0000       1.822237        49.5856 
 403   0.0000       1.827778        49.7364 
 404   0.0000       1.835073        49.9349 
 405   0.0000       1.840125        50.0723 
 406   0.0000       1.846778        50.2534 
 407   0.0000       1.861102        50.6432 
 408   0.0000       1.867449        50.8159 
 409   0.0000       1.872852        50.9629 
 410   0.0000       1.878511        51.1169 
 411   0.0000       1.881788        51.2060 
 412   0.0000       1.890519        51.4436 
 413   0.0000       1.898566        51.6626 
 414   0.0000       1.906671        51.8832 
 415   0.0000       1.914032        52.0835 
 416   0.0000       1.914145        52.0865 
 417   0.0000       1.921113        52.2761 
 418   0.0000       1.923909        52.3522 
 419   0.0000       1.936043        52.6824 
 420   0.0000       1.938772        52.7567 
 421   0.0000       1.946089        52.9558 
 422   0.0000       1.948634        53.0250 
 423   0.0000       1.953688        53.1625 
 424   0.0000       1.960036        53.3353 
 425   0.0000       1.968399        53.5629 
 426   0.0000       1.971847        53.6567 
 427   0.0000       1.977098        53.7996 
 428   0.0000       1.986572        54.0574 
 429   0.0000       1.988620        54.1131 
 430   0.0000       1.992504        54.2188 
 431   0.0000       1.994491        54.2729 
 432   0.0000       2.005880        54.5828 
 433   0.0000       2.012998        54.7765 
 434   0.0000       2.016515        54.8722 
 435   0.0000       2.018402        54.9235 
 436   0.0000       2.026194        55.1355 
 437   0.0000       2.031867        55.2899 
 438   0.0000       2.036062        55.4041 
 439   0.0000       2.042986        55.5925 
 440   0.0000       2.048052        55.7303 
 441   0.0000       2.051957        55.8366 
 442   0.0000       2.057467        55.9865 
 443   0.0000       2.062418        56.1212 
 444   0.0000       2.067949        56.2718 
 445   0.0000       2.074496        56.4499 
 446   0.0000       2.079572        56.5880 
 447   0.0000       2.082612        56.6708 
 448   0.0000       2.085925        56.7609 
 449   0.0000       2.088470        56.8301 
 450   0.0000       2.090889        56.8960 
 451   0.0000       2.097811        57.0843 
 452   0.0000       2.101709        57.1904 
 453   0.0000       2.107682        57.3529 
 454   0.0000       2.112027        57.4712 
 455   0.0000       2.121325        57.7242 
 456   0.0000       2.125886        57.8483 
 457   0.0000       2.127280        57.8862 
 458   0.0000       2.131796        58.0091 
 459   0.0000       2.139812        58.2273 
 460   0.0000       2.145403        58.3794 
 461   0.0000       2.153881        58.6101 
 462   0.0000       2.155540        58.6552 
 463   0.0000       2.157431        58.7067 
 464   0.0000       2.166150        58.9439 
 465   0.0000       2.167971        58.9935 
 466   0.0000       2.171284        59.0837 
 467   0.0000       2.178635        59.2837 
 468   0.0000       2.186481        59.4972 
 469   0.0000       2.188499        59.5521 
 470   0.0000       2.191461        59.6327 
 471   0.0000       2.197830        59.8060 
 472   0.0000       2.201483        59.9054 
 473   0.0000       2.214440        60.2580 
 474   0.0000       2.221300        60.4447 
 475   0.0000       2.223506        60.5047 
 476   0.0000       2.228650        60.6446 
 477   0.0000       2.230930        60.7067 
 478   0.0000       2.232637        60.7531 
 479   0.0000       2.243099        61.0378 
 480   0.0000       2.252138        61.2838 
 481   0.0000       2.253612        61.3239 
 482   0.0000       2.257642        61.4336 
 483   0.0000       2.261493        61.5384 
 484   0.0000       2.265036        61.6348 
 485   0.0000       2.269320        61.7513 
 486   0.0000       2.276171        61.9378 
 487   0.0000       2.276302        61.9413 
 488   0.0000       2.277844        61.9833 
 489   0.0000       2.289526        62.3012 
 490   0.0000       2.290791        62.3356 
 491   0.0000       2.297848        62.5276 
 492   0.0000       2.303310        62.6763 
 493   0.0000       2.304525        62.7093 
 494   0.0000       2.308769        62.8248 
 495   0.0000       2.312344        62.9221 
 496   0.0000       2.320201        63.1359 
 497   0.0000       2.325903        63.2910 
 498   0.0000       2.330358        63.4123 
 499   0.0000       2.336189        63.5709 
 500   0.0000       2.337748        63.6133 
 501   0.0000       2.341644        63.7194 
 502   0.0000       2.346391        63.8485 
 503   0.0000       2.347393        63.8758 
 504   0.0000       2.352864        64.0247 
 505   0.0000       2.353994        64.0554 
 506   0.0000       2.360875        64.2427 
 507   0.0000       2.365367        64.3649 
 508   0.0000       2.375431        64.6388 
 509   0.0000       2.381064        64.7921 
 510   0.0000       2.383634        64.8620 
 511   0.0000       2.387832        64.9762 
 512   0.0000       2.393496        65.1303 
 513   0.0000       2.396190        65.2036 
 514   0.0000       2.399453        65.2924 
 515   0.0000       2.400963        65.3335 
 516   0.0000       2.406652        65.4883 
 517   0.0000       2.417948        65.7957 
 518   0.0000       2.419259        65.8314 
 519   0.0000       2.426508        66.0286 
 520   0.0000       2.431988        66.1778 
 521   0.0000       2.434366        66.2425 
 522   0.0000       2.437099        66.3168 
 523   0.0000       2.444801        66.5264 
 524   0.0000       2.448926        66.6387 
 525   0.0000       2.452004        66.7224 
 526   0.0000       2.454318        66.7854 
 527   0.0000       2.460527        66.9543 
 528   0.0000       2.464835        67.0716 
 529   0.0000       2.466492        67.1167 
 530   0.0000       2.472627        67.2836 
 531   0.0000       2.474250        67.3278 
 532   0.0000       2.480357        67.4939 
 533   0.0000       2.484388        67.6036 
 534   0.0000       2.486642        67.6650 
 535   0.0000       2.493716        67.8575 
 536   0.0000       2.500668        68.0466 
 537   0.0000       2.504063        68.1390 
 538   0.0000       2.510704        68.3197 
 539   0.0000       2.515442        68.4486 
 540   0.0000       2.518989        68.5452 
 541   0.0000       2.525929        68.7340 
 542   0.0000       2.527872        68.7869 
 543   0.0000       2.533434        68.9382 
 544   0.0000       2.543893        69.2229 
 545   0.0000       2.544985        69.2526 
 546   0.0000       2.549562        69.3771 
 547   0.0000       2.553790        69.4922 
 548   0.0000       2.561801        69.7101 
 549   0.0000       2.567648        69.8693 
 550   0.0000       2.569261        69.9132 
 551   0.0000       2.573471        70.0277 
 552   0.0000       2.579046        70.1794 
 553   0.0000       2.587022        70.3965 
 554   0.0000       2.587928        70.4211 
 555   0.0000       2.591399        70.5155 
 556   0.0000       2.594644        70.6038 
 557   0.0000       2.599221        70.7284 
 558   0.0000       2.602627        70.8211 
 559   0.0000       2.612956        71.1021 
 560   0.0000       2.615076        71.1598 
 561   0.0000       2.617128        71.2157 
 562   0.0000       2.624405        71.4137 
 563   0.0000       2.629669        71.5569 
 564   0.0000       2.632122        71.6237 
 565   0.0000       2.635119        71.7052 
 566   0.0000       2.645002        71.9742 
 567   0.0000       2.649317        72.0916 
 568   0.0000       2.653887        72.2159 
 569   0.0000       2.658233        72.3342 
 570   0.0000       2.663839        72.4868 
 571   0.0000       2.670080        72.6566 
 572   0.0000       2.675541        72.8052 
 573   0.0000       2.678623        72.8890 
 574   0.0000       2.682344        72.9903 
 575   0.0000       2.688297        73.1523 
 576   0.0000       2.690617        73.2154 
 577   0.0000       2.693563        73.2956 
 578   0.0000       2.700122        73.4741 
 579   0.0000       2.705081        73.6090 
 580   0.0000       2.710091        73.7453 
 581   0.0000       2.718452        73.9728 
 582   0.0000       2.720448        74.0271 
 583   0.0000       2.731860        74.3377 
 584   0.0000       2.734392        74.4066 
 585   0.0000       2.738709        74.5241 
 586   0.0000       2.741644        74.6039 
 587   0.0000       2.747313        74.7582 
 588   0.0000       2.754622        74.9571 
 589   0.0000       2.755636        74.9847 
 590   0.0000       2.762734        75.1778 
 591   0.0000       2.769435        75.3602 
 592   0.0000       2.773714        75.4766 
 593   0.0000       2.778016        75.5937 
 594   0.0000       2.782422        75.7136 
 595   0.0000       2.785905        75.8083 
 596   0.0000       2.787639        75.8555 
 597   0.0000       2.792083        75.9765 
 598   0.0000       2.796400        76.0939 
 599   0.0000       2.805389        76.3385 
 600   0.0000       2.807495        76.3958 
 601   0.0000       2.814549        76.5878 
 602   0.0000       2.820510        76.7500 
 603   0.0000       2.822116        76.7937 
 604   0.0000       2.825318        76.8808 
 605   0.0000       2.830381        77.0186 
 606   0.0000       2.833714        77.1093 
 607   0.0000       2.838713        77.2453 
 608   0.0000       2.840690        77.2991 
 609   0.0000       2.844314        77.3977 
 610   0.0000       2.851771        77.6006 
 611   0.0000       2.854060        77.6629 
 612   0.0000       2.857942        77.7686 
 613   0.0000       2.867766        78.0359 
 614   0.0000       2.869501        78.0831 
 615   0.0000       2.876362        78.2698 
 616   0.0000       2.879177        78.3464 
 617   0.0000       2.883127        78.4539 
 618   0.0000       2.894695        78.7687 
 619   0.0000       2.895548        78.7919 
 620   0.0000       2.902118        78.9706 
 621   0.0000       2.903997        79.0218 
 622   0.0000       2.906467        79.0890 
 623   0.0000       2.915646        79.3388 
 624   0.0000       2.918672        79.4211 
 625   0.0000       2.925769        79.6142 
 626   0.0000       2.928629        79.6920 
 627   0.0000       2.939607        79.9908 
 628   0.0000       2.941287        80.0365 
 629   0.0000       2.944890        80.1345 
 630   0.0000       2.953189        80.3604 
 631   0.0000       2.954140        80.3862 
 632   0.0000       2.965503        80.6954 
 633   0.0000       2.966343        80.7183 
 634   0.0000       2.971754        80.8655 
 635   0.0000       2.978549        81.0504 
 636   0.0000       2.981469        81.1299 
 637   0.0000       2.981852        81.1403 
 638   0.0000       2.990808        81.3840 
 639   0.0000       2.998553        81.5948 
 640   0.0000       3.002476        81.7015 
 641   0.0000       3.006779        81.8186 
 642   0.0000       3.015878        82.0662 
 643   0.0000       3.021182        82.2105 
 644   0.0000       3.026489        82.3550 
 645   0.0000       3.031256        82.4847 
 646   0.0000       3.033716        82.5516 
 647   0.0000       3.035281        82.5942 
 648   0.0000       3.046694        82.9048 
 649   0.0000       3.047498        82.9266 
 650   0.0000       3.052997        83.0763 
 651   0.0000       3.058354        83.2220 
 652   0.0000       3.066059        83.4317 
 653   0.0000       3.071325        83.5750 
 654   0.0000       3.074908        83.6725 
 655   0.0000       3.077010        83.7297 
 656   0.0000       3.082374        83.8757 
 657   0.0000       3.089169        84.0606 
 658   0.0000       3.092833        84.1603 
 659   0.0000       3.104806        84.4861 
 660   0.0000       3.106071        84.5205 
 661   0.0000       3.115587        84.7794 
 662   0.0000       3.119017        84.8728 
 663   0.0000       3.122880        84.9779 
 664   0.0000       3.125504        85.0493 
 665   0.0000       3.131324        85.2077 
 666   0.0000       3.139972        85.4430 
 667   0.0000       3.143630        85.5425 
 668   0.0000       3.147304        85.6425 
 669   0.0000       3.152724        85.7900 
 670   0.0000       3.164144        86.1007 
 671   0.0000       3.166482        86.1644 
 672   0.0000       3.171867        86.3109 
 673   0.0000       3.179227        86.5112 
 674   0.0000       3.181973        86.5859 
 675   0.0000       3.185230        86.6745 
 676   0.0000       3.192694        86.8776 
 677   0.0000       3.200818        87.0987 
 678   0.0000       3.202682        87.1494 
 679   0.0000       3.209656        87.3392 
 680   0.0000       3.212912        87.4278 
 681   0.0000       3.220066        87.6225 
 682   0.0000       3.225470        87.7695 
 683   0.0000       3.228769        87.8593 
 684   0.0000       3.235405        88.0398 
 685   0.0000       3.240224        88.1710 
 686   0.0000       3.241540        88.2068 
 687   0.0000       3.247612        88.3720 
 688   0.0000       3.258325        88.6635 
 689   0.0000       3.263540        88.8054 
 690   0.0000       3.272652        89.0534 
 691   0.0000       3.278220        89.2049 
 692   0.0000       3.278462        89.2115 
 693   0.0000       3.291062        89.5544 
 694   0.0000       3.296614        89.7054 
 695   0.0000       3.302964        89.8782 
 696   0.0000       3.306854        89.9841 
 697   0.0000       3.316912        90.2578 
 698   0.0000       3.319080        90.3168 
 699   0.0000       3.321579        90.3848 
 700   0.0000       3.325358        90.4876 
 701   0.0000       3.335928        90.7752 
 702   0.0000       3.342946        90.9662 
 703   0.0000       3.348448        91.1159 
 704   0.0000       3.355903        91.3188 
 705   0.0000       3.357707        91.3679 
 706   0.0000       3.364728        91.5589 
 707   0.0000       3.369550        91.6901 
 708   0.0000       3.380542        91.9892 
 709   0.0000       3.388148        92.1962 
 710   0.0000       3.391382        92.2842 
 711   0.0000       3.397386        92.4476 
 712   0.0000       3.404924        92.6527 
 713   0.0000       3.412024        92.8459 
 714   0.0000       3.418231        93.0148 
 715   0.0000       3.424436        93.1836 
 716   0.0000       3.427943        93.2791 
 717   0.0000       3.433512        93.4306 
 718   0.0000       3.435840        93.4940 
 719   0.0000       3.440859        93.6305 
 720   0.0000       3.449782        93.8733 
 721   0.0000       3.458245        94.1036 
 722   0.0000       3.468518        94.3832 
 723   0.0000       3.472043        94.4791 
 724   0.0000       3.476744        94.6070 
 725   0.0000       3.485469        94.8444 
 726   0.0000       3.492084        95.0244 
 727   0.0000       3.496746        95.1513 
 728   0.0000       3.502658        95.3122 
 729   0.0000       3.506317        95.4117 
 730   0.0000       3.513656        95.6114 
 731   0.0000       3.521524        95.8255 
 732   0.0000       3.523070        95.8676 
 733   0.0000       3.525181        95.9250 
 734   0.0000       3.535417        96.2036 
 735   0.0000       3.539586        96.3170 
 736   0.0000       3.550253        96.6073 
 737   0.0000       3.553877        96.7059 
 738   0.0000       3.558162        96.8225 
 739   0.0000       3.564318        96.9900 
 740   0.0000       3.572203        97.2046 
 741   0.0000       3.572804        97.2210 
 742   0.0000       3.576599        97.3242 
 743   0.0000       3.580832        97.4394 
 744   0.0000       3.593857        97.7938 
 745   0.0000       3.596182        97.8571 
 746   0.0000       3.601222        97.9942 
 747   0.0000       3.608535        98.1932 
 748   0.0000       3.610916        98.2580 
 749   0.0000       3.617896        98.4480 
 750   0.0000       3.628572        98.7385 
 751   0.0000       3.635637        98.9307 
 752   0.0000       3.641470        99.0894 
 753   0.0000       3.646425        99.2243 
 754   0.0000       3.651441        99.3608 
 755   0.0000       3.666445        99.7690 
 756   0.0000       3.674256        99.9816 
 757   0.0000       3.684903       100.2713 
 758   0.0000       3.693570       100.5071 
 759   0.0000       3.700723       100.7018 
 760   0.0000       3.704553       100.8060 
 761   0.0000       3.711065       100.9832 
 762   0.0000       3.713416       101.0472 
 763   0.0000       3.725653       101.3802 
 764   0.0000       3.731165       101.5302 
 765   0.0000       3.731500       101.5393 
 766   0.0000       3.739496       101.7568 
 767   0.0000       3.749336       102.0246 
 768   0.0000       3.750834       102.0654 
 769   0.0000       3.765394       102.4616 
 770   0.0000       3.767699       102.5243 
 771   0.0000       3.776947       102.7760 
 772   0.0000       3.783046       102.9419 
 773   0.0000       3.787872       103.0732 
 774   0.0000       3.794172       103.2447 
 775   0.0000       3.797008       103.3218 
 776   0.0000       3.809950       103.6740 
 777   0.0000       3.816629       103.8557 
 778   0.0000       3.821925       103.9999 
 779   0.0000       3.829754       104.2129 
 780   0.0000       3.831317       104.2554 
 781   0.0000       3.836081       104.3851 
 782   0.0000       3.841022       104.5195 
 783   0.0000       3.846191       104.6602 
 784   0.0000       3.849429       104.7483 
 785   0.0000       3.857746       104.9746 
 786   0.0000       3.865651       105.1897 
 787   0.0000       3.872557       105.3776 
 788   0.0000       3.874408       105.4280 
 789   0.0000       3.882028       105.6353 
 790   0.0000       3.894646       105.9787 
 791   0.0000       3.897447       106.0549 
 792   0.0000       3.902620       106.1957 
 793   0.0000       3.918219       106.6202 
 794   0.0000       3.920847       106.6917 
 795   0.0000       3.924985       106.8043 
 796   0.0000       3.927953       106.8850 
 797   0.0000       3.933392       107.0330 
 798   0.0000       3.941134       107.2437 
 799   0.0000       3.946670       107.3944 
 800   0.0000       3.952215       107.5452 
 801   0.0000       3.966448       107.9325 
 802   0.0000       3.974142       108.1419 
 803   0.0000       3.977802       108.2415 
 804   0.0000       3.978564       108.2622 
 805   0.0000       3.990012       108.5738 
 806   0.0000       3.991285       108.6084 
 807   0.0000       4.003803       108.9490 
 808   0.0000       4.007598       109.0523 
 809   0.0000       4.012374       109.1823 
 810   0.0000       4.021349       109.4265 
 811   0.0000       4.030682       109.6804 
 812   0.0000       4.037030       109.8532 
[...]
Type of local MP2 treatment                 .... full local PMP2
Strategy for PNO selection                  .... occupation number selection
Pair density normalization                  .... MP2 norm
Spin component scaling                      .... not used

PASS-1: Formation of initial guess LMP2 amplitudes
Initial amplitudes guess done. Entering LMP2 iteration loop:
   Max. no of iterations          ...  50
   Energy convergence tolerance   ...    1.0e-07
   Residual convergence tolerance ...    5.0e-07
   Fock matrix cutoff             ...    1.0e-05 Eh
   DIIS convergence acceleration parameters:
        Max # vectors in DIIS     ... 7
        Start iteration of DIIS   ... 0
        Levelshift                ... 2.000e-01
        Damping factor 1          ... 5.000e-01
        Damping factor 2          ... 1.000e+00
   L-MP2 PNO cut-off              ...   1.0e-09
   L-MP2 PNO cut-off (core)       ...   1.0e-11
                           *** Turning on DIIS ***
LMP2-Iter=   0:  ELMP2= -4.556867511381  DE=   1.0e-01 RMAX=   1.4e-02
LMP2-Iter=   1:  ELMP2= -4.611332183000  DE=   5.4e-02 RMAX=   6.1e-03
LMP2-Iter=   2:  ELMP2= -4.622229767401  DE=   1.1e-02 RMAX=   2.4e-03
LMP2-Iter=   3:  ELMP2= -4.623739033288  DE=   1.5e-03 RMAX=   9.4e-04
LMP2-Iter=   4:  ELMP2= -4.623760713224  DE=   2.2e-05 RMAX=   2.9e-04
LMP2-Iter=   5:  ELMP2= -4.623721291057  DE=   3.9e-05 RMAX=   8.5e-05
LMP2-Iter=   6:  ELMP2= -4.623715139294  DE=   6.2e-06 RMAX=   2.2e-05
LMP2-Iter=   7:  ELMP2= -4.623716333965  DE=   1.2e-06 RMAX=   6.6e-06
LMP2-Iter=   8:  ELMP2= -4.623716995144  DE=   6.6e-07 RMAX=   1.7e-06
LMP2-Iter=   9:  ELMP2= -4.623716948733  DE=   4.6e-08 RMAX=   4.7e-07
LMP2-Iter=  10:  ELMP2= -4.623716943405  DE=   5.3e-09 RMAX=   1.2e-07
LMP2-Iter=  11:  ELMP2= -4.623716915837  DE=   2.8e-08 RMAX=   4.0e-08 => CONVERGED
PASS-2: Formation of Pair natural orbitals
   .... Finished loop over pairs

 PNO Occupation Number Statistics: 
  | Av. % of trace(Dij) retained        ...  97.856257194158
  | sigma^2 in % of trace(Dij) retained ...   8.41e+00
  | Av. % of trace(Di) retained         ...  99.999517188548
  | sigma^2 in % of trace(Di) retained  ...   1.74e-08
 Distributions of % trace(Dij) recovered:
  |       >= 99.9  ...   199 ( 11.0 % of all pairs)
  |   [70.0, 80.0) ...     5 (  0.3 % of all pairs)
  |   [80.0, 90.0) ...    62 (  3.4 % of all pairs)
  |   [90.0, 99.0) ...  1021 ( 56.6 % of all pairs)
  |   [99.0, 99.9) ...   518 ( 28.7 % of all pairs)
 Distributions of % trace(Di) recovered :
  |       >= 99.9  ...    64 (100.0 % of all I-pairs )

Making pair pair interaction lists          ... done

                       ===========================
                       1261 OF 1805 PAIRS ARE KEPT
                       ===========================

Total time spent in the initial guess                 ...  7050.861 sec
L-MP2 correlation energy (all non-screened pairs)     ...      -4.623716915837 Eh
L-MP2 PNO error correction                            ...      -0.000344235781 Eh
                                                          --------------------
Initial total L-MP2 energy (non-screened pairs)       ...      -4.624061151618 Eh

Initial PNO correlation energy                        ...      -4.612277050951 Eh
sum of pair energies estimated for screened out pairs ...      -0.000113086227 Eh
sum of MP2 pair energies for pairs that were not kept ...      -0.002815101863 Eh
sum of PNO error estimates for the kept pairs         ...      -0.009515034931 Eh
                                                          --------------------
sum of all corrections                                         -0.012443223021
Initial total correlation energy                               -4.624720273972
Thresholds for map construction and integral transformation for fine MP2 and CCSD(T) calculation:
   TCutMKN   ...     1.0e-03
   TCutDO    ...     5.0e-03
   TCutPairs ...     1.0e-05
   TCutCMO   ...     1.0e-03
   TCutCPAO  ...     1.0e-03

Time for aux screen maps:            0.025
Time for maps after fine MP2:            0.164
-----------------------------
LOCAL RI TRANSFORMATION (IJV)
-----------------------------

Orbital window:      23 to 86
Basis functions:   1865 (545 shells)
Aux. functions:    4136 (990 shells)
Use SHARK:           on

Processing maps (0.0 sec)
Average map sizes:
   Aux shells -> MOs(i)           57.0
   Aux shells -> MOs(j)           64.0
   MOs        -> AO shells       482.1

Calculating integrals (22.3 sec, 115.531 MB)
Sorting integrals (0.3 sec, 115.485 MB)
Total time for the integral transformation: 22.7 sec
--------------------------------
LOCAL RI TRANSFORMATION (VABPAO)
--------------------------------

Number of PAOs:    1865
Basis functions:   1865 (545 shells)
Aux. functions:    4136 (990 shells)
Use SHARK:           on

Processing maps (0.0 sec)
Average map sizes:
   Aux shells -> PAOs           1850.3
   PAOs       -> AO shells       532.2

Calculating integrals (662.2 sec, 108112.355 MB)
Finished


-------------------------------------
Pair Pair Term precalculation with     
RI-(ij|mn) and (im|jn) transformation  
ON THE FLY                             
-------------------------------------

   IBatch   1 (of   8)              ... done (  603.383 sec)
   IBatch   2 (of   8)              ... done (  619.855 sec)
   IBatch   3 (of   8)              ... done (  745.737 sec)
   IBatch   4 (of   8)              ... done ( 1047.225 sec)
   IBatch   5 (of   8)              ... done ( 1126.740 sec)
   IBatch   6 (of   8)              ... done ( 1180.706 sec)
   IBatch   7 (of   8)              ... done ( 1336.271 sec)
   IBatch   8 (of   8)              ... done ( 1536.679 sec)
Total EXT                           ...        8196.597 sec

---------------------
RI-PNO TRANSFORMATION
---------------------

Total Number of PNOs                   ... 43782
Average number of PNOs per pair        ...    34
Maximal number of PNOs per pair        ...   126
   #pairs with  1 -  5 PNOs   :    0
   #pairs with  6 - 10 PNOs   :  326
   #pairs with 11 - 15 PNOs   :  170
   #pairs with 16 - 20 PNOs   :   73
   #pairs with 21 - 25 PNOs   :   74
   #pairs with 26 - 30 PNOs   :   82
   #pairs with 31 - 35 PNOs   :   64
   #pairs with 36 - 40 PNOs   :   44
   #pairs with 41 - 45 PNOs   :   33
   #pairs with 46 - 50 PNOs   :   26
   #pairs with 51 - 55 PNOs   :   53
   #pairs with 56 - 60 PNOs   :   52
   #pairs with 61 - 65 PNOs   :   36
   #pairs with 66 - 70 PNOs   :   22
   #pairs with 71 - 75 PNOs   :   12
   #pairs with 76 - 80 PNOs   :   54
   #pairs with 81 - 85 PNOs   :   39
   #pairs with 86 - 90 PNOs   :   29
   #pairs with 91 - 95 PNOs   :   43
   #pairs with > 96 PNOs      :   29

Generation of (ij|ab)[P] integrals            ... on
Generation of (ia|bc)[P],(ja|bc)[P] integrals ... on
Storage of 3 and 4 external integrals         ... on
Generation of ALL (ka|bc)[P] integrals        ... on
Keep RI integrals in memory                   ... off

Ibatch:  1 (of  1)
Starting 2-4 index PNO integral generation ... done

Timings:
Total PNO integral transformation time     ...       3732.206 sec
Size of the 3-external file                ...      1429 MB
Size of the 4-external file                ...     14486 MB
Size of the IKJL file                      ...         1 MB
Size of the all 3-external file            ...     43266 MB
Size of the 1-external file                ...        61 MB

Making pair/pair overlap matrices          ... done ( 1055.183 sec)
Size of the pair overlap file              ... 10199 MB
Redoing the guess amplitudes               ... done (    0.086 sec)

-------------------------
FINAL STARTUP INFORMATION
-------------------------

E(0)                                       ...  -1154.749234312
E(L-MP2)                                   ...     -4.624061152
E(L-MP2) including corrections             ...     -4.624720274
Initial E(tot)                             ...  -1159.373954585
<T|T>                                      ...      1.130186016
Number of pairs included                   ... 1261
Total number of pairs                      ... 2080

------------------------------------------------
                  RHF COUPLED CLUSTER ITERATIONS
------------------------------------------------

Number of PNO amplitudes to be optimized   ...      2548008
Number of non-PNO amplitudes               ...   3986379124
Untruncated number of regular amplitudes   ...   6575470720

Iter       E(tot)           E(Corr)          Delta-E          Residual     Time
  0  -1159.201744409     -4.440066874      0.183994277      0.016840868 3665.04
                           *** Turning on DIIS ***
  1  -1159.266982233     -4.505304698     -0.065237824      0.010465378 3972.51
  2  -1159.366439802     -4.604762267     -0.099457569      0.005975796 3919.36
  3  -1159.390401585     -4.628724050     -0.023961783      0.003304014 3980.92
  4  -1159.397548720     -4.635871185     -0.007147135      0.001696625 3873.84
  5  -1159.399843322     -4.638165787     -0.002294602      0.000723095 4155.76
  6  -1159.400417559     -4.638740024     -0.000574237      0.000338955 3899.84
  7  -1159.400544654     -4.638867120     -0.000127095      0.000169996 3732.18
  8  -1159.400572113     -4.638894578     -0.000027459      0.000092695 3632.93
  9  -1159.400552822     -4.638875287      0.000019291      0.000046717 3494.69
 10  -1159.400557737     -4.638880202     -0.000004915      0.000022992 3532.26
 11  -1159.400555518     -4.638877984      0.000002219      0.000012565 3589.51
 12  -1159.400554122     -4.638876588      0.000001396      0.000007325 3728.81
               --- The Coupled-Cluster iterations have converged ---

----------------------
COUPLED CLUSTER ENERGY
----------------------

E(0)                                       ...  -1154.749234312
E(CORR)(strong-pairs)                      ...     -4.638876588
E(CORR)(weak-pairs)                        ...     -0.012443223
E(CORR)(corrected)                         ...     -4.651319811
E(TOT)                                     ...  -1159.400554122
Singles Norm <S|S>**1/2                    ...      0.154871062  
T1 diagnostic                              ...      0.013688797  

------------------
LARGEST AMPLITUDES
------------------
  57-> 87  57-> 87       0.058221
  70-> 87  70-> 87       0.051332
  56-> 87  56-> 87       0.050944
  57-> 87  56-> 87       0.046970
  73-> 87  73-> 87       0.046500
  74-> 87  74-> 87       0.045734
  69-> 87  69-> 87       0.042254
  58-> 91  58-> 91       0.041508
  76-> 89  76-> 89       0.040867
  70-> 87  69-> 87       0.039787
  46-> 87  46-> 87       0.039218
  60-> 87  60-> 87       0.037162
  74-> 87  73-> 87       0.036824
  48-> 89  48-> 89       0.036737
  52-> 87  52-> 87       0.035752
  61-> 87  61-> 87       0.035640


-------------------------------------------
DLPNO BASED TRIPLES CORRECTION
-------------------------------------------

Singles multiplier          ...  1.000000
TCutTNO                     ... 1.000e-09
TCutMP2Pairs                ... 1.000e-06
TCutDOStrong                ... 1.000e-02
TCutMKNStrong               ... 1.000e-02
TCutDOWeak                  ... 2.000e-02
TCutMKNWeak                 ... 1.000e-01

Fragment selection                          .... not used
Fock matrix occ-virt block is zero --> Setting DT_in_Triples to false.
Number of Triples that are to be computed   ...     23984

 . . . . . . . . .             (   8528.509 sec)
 . . . . . . . . .
10% done  
20% done               (   9204.083 sec)
 . . . . . . . . .
30% done               (  12268.427 sec)
 . . . . . . . . .
40% done  
50% done               (  14904.005 sec)
 . . . . . . . . .
60% done  
70% done  
80% done               (  19214.892 sec)
 . . . . . . . . .
90% done               (   8431.993 sec)
Triples timings:
Total time for T0               ... 81374.280 sec
Total time for Iterative (T)    ...     0.000 sec
Total time of overall (T)       ... 83331.888 sec

Triples List generation         ...     0.000 sec
TNO generation                  ...  8821.695 sec
Pair density generation         ...     0.085 sec
Look up tables                  ...     0.000 sec
Generating 3-index integrals    ... 60332.797 sec
  Make 4-ind.int. from 3-ind.int...   661.675 sec
  Projecting amplitudes (D + S) ... 11040.280 sec
  Downprojecting integrals      ...     0.030 sec
  Energy contr. (sum over a,b,c)...    37.989 sec
Fitting ET(->0)                 ...     0.000 sec

Everything after 3-index        ... 12219.113 sec

Timing details:
 TNO integrals                  ... 60970.534 sec
   Reading 3-index integrals    ...  2196.420 sec
   Sorting integrals            ...  4467.935 sec
       Sorting integrals 1      ...     0.028 sec
       Sorting integrals 2      ...  4395.106 sec
       Sorting integrals 3      ...    14.023 sec
       Sorting integrals 4      ...     1.454 sec
       Sorting integrals 5      ...    19.162 sec
       Sorting integrals 6      ...    38.160 sec
   Calculating local VM**-1/2   ...    62.216 sec
   Orthogonal. integrals        ...    87.058 sec
   Multipl. 3-index integrals   ... 54156.906 sec
   All concerning IRIab (w/TNO) ...   453.049 sec

 Calculate W0/W1                ...   479.045 sec
 W 3-ext contribution           ...   303.536 sec
 W 3-int contribution           ...   131.789 sec
 Sorting W                      ...    39.006 sec

 V exchange contribution        ...     9.319 sec

 Timings for Triples without generation
     of 3-index integrals       ... 12219.081 sec
       0 weak pairs             ...  8823.534 sec
       1 weak pair              ...  3395.547 sec
       2 weak pairs             ...     0.000 sec
       3 weak pairs             ...     0.000 sec
  Extra time for extrapolation  ...     0.000 sec

Number of Triples   (0, 1, 2, 3 weak pairs; overall):  14401    9583       0       0  ( 23984)
Number of Atoms     (0, 1, 2, 3 weak pairs; overall):   26.5    24.7     0.0     0.0  (    43)
Number of PAOs      (0, 1, 2, 3 weak pairs; overall): 1199.3  1126.4     0.0     0.0  (  1865)
Number of AuxFcns   (0, 1, 2, 3 weak pairs; overall):  901.2   633.5     0.0     0.0  (  4136)
Number of TNOs      (0, 1, 2, 3 weak pairs         ):   98.8    54.8     0.0     0.0
Aver. Number of NTNO, Atoms, PAOs, AuxFcns / Triples:  23984    81.2    25.8  1170.1   794.2

Triples Correction (T)                     ...     -0.213019809
Final correlation energy                   ...     -4.864339620
E(CCSD)                                    ...  -1159.400554122
E(CCSD(T))                                 ...  -1159.613573931



--------------------------------------------------------------------------------
                                    TIMINGS
--------------------------------------------------------------------------------


Total execution time                   ...   157081.844 sec

Localization of occupied MO's          ...      126.802 sec (  0.1%)
Fock Matrix Formation                  ...      700.508 sec (  0.4%)
Global overlap, Fock, MKN matrices     ...      487.090 sec (  0.3%)
Differential overlap integrals         ...       18.231 sec (  0.0%)
Organizing maps                        ...        0.519 sec (  0.0%)
RI 3-index integral generations        ...      943.017 sec (  0.6%)
RI-PNO integral transformation         ...    14170.899 sec (  9.0%)
Initial Guess                          ...     8120.953 sec (  5.2%)
DIIS Solver                            ...      203.937 sec (  0.1%)
State Vector Update                    ...        0.213 sec (  0.0%)
Sigma-vector construction              ...    49159.111 sec ( 31.3%)
  <0|H|D>                              ...        0.004 sec (  0.0% of sigma)
  <D|H|D>(0-ext)                       ...    12084.325 sec ( 24.6% of sigma)
  <D|H|D>(2-ext Fock)                  ...        7.347 sec (  0.0% of sigma)
  <D|H|D>(2-ext)                       ...     3603.116 sec (  7.3% of sigma)
  <D|H|D>(4-ext)                       ...      198.448 sec (  0.4% of sigma)
  <D|H|D>(4-ext-corr)                  ...     1032.692 sec (  2.1% of sigma)
  CCSD doubles correction              ...      749.306 sec (  1.5% of sigma)
  <S|H|S>                              ...      220.371 sec (  0.4% of sigma)
  <S|H|D>(1-ext)                       ...       51.612 sec (  0.1% of sigma)
  <D|H|S>(1-ext)                       ...        4.096 sec (  0.0% of sigma)
  <S|H|D>(3-ext)                       ...       36.522 sec (  0.1% of sigma)
  CCSD singles correction              ...        0.004 sec (  0.0% of sigma)
  Fock-dressing                        ...    13794.981 sec ( 28.1% of sigma)
  Singles amplitudes                   ...      242.086 sec (  0.5% of sigma)
  (ik|jl)-dressing                     ...    14773.941 sec ( 30.1% of sigma)
  (ij|ab),(ia|jb)-dressing             ...     2173.713 sec (  4.4% of sigma)
  Pair energies                        ...        0.098 sec (  0.0% of sigma)
Total Time for computing (T)           ...    83331.973 sec ( 53.1% of ALL)


Maximum memory used throughout the entire MDCI-calculation: 10245.6 MB

-------------------------   --------------------
FINAL SINGLE POINT ENERGY     -1159.613573931121
-------------------------   --------------------


                            ***************************************
                            *     ORCA property calculations      *
                            ***************************************


  WARNING: The energy has been calculated at the MDCI level but the densities
           used in the property calculations are still SCF densities
           MDCI response densities have not been calculated 
           use %mdci Density linearized end
           or  %mdci Density unrelaxed end
           or  %mdci Density orbopt end

                                    ---------------------
                                    Active property flags
                                    ---------------------
   (+) Dipole Moment


------------------------------------------------------------------------------
                       ORCA ELECTRIC PROPERTIES CALCULATION
------------------------------------------------------------------------------

Dipole Moment Calculation                       ... on
Quadrupole Moment Calculation                   ... off
Polarizability Calculation                      ... off
GBWName                                         ... input.gbw
Electron density                                ... input.scfp
The origin for moment calculation is the CENTER OF MASS  = (20.331314, 17.631358 17.212905)

-------------
DIPOLE MOMENT
-------------
                                X             Y             Z
Electronic contribution:     21.94041     -10.36789       0.32823
Nuclear contribution   :    -31.87353      13.99733       5.19914
                        -----------------------------------------
Total Dipole Moment    :     -9.93312       3.62945       5.52737
                        -----------------------------------------
Magnitude (a.u.)       :     11.93279
Magnitude (Debye)      :     30.33074



--------------------
Rotational spectrum 
--------------------
 
Rotational constants in cm-1:     0.015831     0.005012     0.004787 
Rotational constants in MHz :   474.610894   150.242702   143.525207 

 Dipole components along the rotational axes: 
x,y,z [a.u.] :    10.862452    -4.391165     2.261924 
x,y,z [Debye]:    27.610158   -11.161455     5.749355 

 

Timings for individual modules:

Sum of individual times         ...   162783.753 sec (=2713.063 min)
GTO integral calculation        ...       46.647 sec (=   0.777 min)   0.0 %
SCF iterations                  ...     5610.394 sec (=  93.507 min)   3.4 %
MDCI module                     ...   157126.712 sec (=2618.779 min)  96.5 %
                             ****ORCA TERMINATED NORMALLY****
TOTAL RUN TIME: 1 days 21 hours 13 minutes 25 seconds 508 msec
