Loading orca/5.0.3
  Loading requirement: gcc-runtime/11.3.1-gcc-11.3.1-jw6fhud
    numactl/2.0.14-gcc-11.3.1-tqvsbcd openssh/8.7p1-gcc-11.3.1-ddo4kmk
    libiconv/1.17-gcc-11.3.1-h3jdn2x xz/5.4.1-gcc-11.3.1-y32p7p3
    zlib/1.2.13-gcc-11.3.1-dwcx77k libxml2/2.10.3-gcc-11.3.1-m4mk5ab
    cuda/11.8.0-gcc-11.3.1-i5witig libpciaccess/0.17-gcc-11.3.1-qksiqer
    ncurses/6.4-gcc-11.3.1-afnu276 hwloc/2.9.1-gcc-11.3.1-qedjm66
    openssl/3.1.2-gcc-11.3.1-mgoa6lt libevent/2.1.12-gcc-11.3.1-bpr3m74
    pmix/4.2.2-gcc-11.3.1-du4y5e7 slurm/22.05.6-gcc-11.3.1-atym2np
    libnl/3.3.0-gcc-11.3.1-gh3muw7 rdma-core/41.0-gcc-11.3.1-isp54jw
    ucx/1.14.1-gcc-11.3.1-o3wj4kz openmpi/4.1.2-gcc-11.3.1-fs7u3kb

                                 *****************
                                 * O   R   C   A *
                                 *****************

                                            #,                                       
                                            ###                                      
                                            ####                                     
                                            #####                                    
                                            ######                                   
                                           ########,                                 
                                     ,,################,,,,,                         
                               ,,#################################,,                 
                          ,,##########################################,,             
                       ,#########################################, ''#####,          
                    ,#############################################,,   '####,        
                  ,##################################################,,,,####,       
                ,###########''''           ''''###############################       
              ,#####''   ,,,,##########,,,,          '''####'''          '####       
            ,##' ,,,,###########################,,,                        '##       
           ' ,,###''''                  '''############,,,                           
         ,,##''                                '''############,,,,        ,,,,,,###''
      ,#''                                            '''#######################'''  
     '                                                          ''''####''''         
             ,#######,   #######,   ,#######,      ##                                
            ,#'     '#,  ##    ##  ,#'     '#,    #''#        ######   ,####,        
            ##       ##  ##   ,#'  ##            #'  '#       #        #'  '#        
            ##       ##  #######   ##           ,######,      #####,   #    #        
            '#,     ,#'  ##    ##  '#,     ,#' ,#      #,         ##   #,  ,#        
             '#######'   ##     ##  '#######'  #'      '#     #####' # '####'        



                  #######################################################
                  #                        -***-                        #
                  #          Department of theory and spectroscopy      #
                  #    Directorship and core code : Frank Neese         #
                  #        Max Planck Institute fuer Kohlenforschung    #
                  #                Kaiser Wilhelm Platz 1               #
                  #                 D-45470 Muelheim/Ruhr               #
                  #                      Germany                        #
                  #                                                     #
                  #                  All rights reserved                #
                  #                        -***-                        #
                  #######################################################


                         Program Version 5.0.3 -  RELEASE  -


 With contributions from (in alphabetic order):
   Daniel Aravena         : Magnetic Suceptibility
   Michael Atanasov       : Ab Initio Ligand Field Theory (pilot matlab implementation)
   Alexander A. Auer      : GIAO ZORA, VPT2 properties, NMR spectrum
   Ute Becker             : Parallelization
   Giovanni Bistoni       : ED, misc. LED, open-shell LED, HFLD
   Martin Brehm           : Molecular dynamics
   Dmytro Bykov           : SCF Hessian
   Vijay G. Chilkuri      : MRCI spin determinant printing, contributions to CSF-ICE
   Dipayan Datta          : RHF DLPNO-CCSD density
   Achintya Kumar Dutta   : EOM-CC, STEOM-CC
   Dmitry Ganyushin       : Spin-Orbit,Spin-Spin,Magnetic field MRCI
   Miquel Garcia          : C-PCM and meta-GGA Hessian, CC/C-PCM, Gaussian charge scheme
   Yang Guo               : DLPNO-NEVPT2, F12-NEVPT2, CIM, IAO-localization
   Andreas Hansen         : Spin unrestricted coupled pair/coupled cluster methods
   Benjamin Helmich-Paris : MC-RPA, TRAH-SCF, COSX integrals
   Lee Huntington         : MR-EOM, pCC
   Robert Izsak           : Overlap fitted RIJCOSX, COSX-SCS-MP3, EOM
   Marcus Kettner         : VPT2
   Christian Kollmar      : KDIIS, OOCD, Brueckner-CCSD(T), CCSD density, CASPT2, CASPT2-K
   Simone Kossmann        : Meta GGA functionals, TD-DFT gradient, OOMP2, MP2 Hessian
   Martin Krupicka        : Initial AUTO-CI
   Lucas Lang             : DCDCAS
   Marvin Lechner         : AUTO-CI (C++ implementation), FIC-MRCC
   Dagmar Lenk            : GEPOL surface, SMD
   Dimitrios Liakos       : Extrapolation schemes; Compound Job, initial MDCI parallelization
   Dimitrios Manganas     : Further ROCIS development; embedding schemes
   Dimitrios Pantazis     : SARC Basis sets
   Anastasios Papadopoulos: AUTO-CI, single reference methods and gradients
   Taras Petrenko         : DFT Hessian,TD-DFT gradient, ASA, ECA, R-Raman, ABS, FL, XAS/XES, NRVS
   Peter Pinski           : DLPNO-MP2, DLPNO-MP2 Gradient
   Christoph Reimann      : Effective Core Potentials
   Marius Retegan         : Local ZFS, SOC
   Christoph Riplinger    : Optimizer, TS searches, QM/MM, DLPNO-CCSD(T), (RO)-DLPNO pert. Triples
   Tobias Risthaus        : Range-separated hybrids, TD-DFT gradient, RPA, STAB
   Michael Roemelt        : Original ROCIS implementation
   Masaaki Saitow         : Open-shell DLPNO-CCSD energy and density
   Barbara Sandhoefer     : DKH picture change effects
   Avijit Sen             : IP-ROCIS
   Kantharuban Sivalingam : CASSCF convergence, NEVPT2, FIC-MRCI
   Bernardo de Souza      : ESD, SOC TD-DFT
   Georgi Stoychev        : AutoAux, RI-MP2 NMR, DLPNO-MP2 response
   Willem Van den Heuvel  : Paramagnetic NMR
   Boris Wezisla          : Elementary symmetry handling
   Frank Wennmohs         : Technical directorship


 We gratefully acknowledge several colleagues who have allowed us to
 interface, adapt or use parts of their codes:
   Stefan Grimme, W. Hujo, H. Kruse, P. Pracht,  : VdW corrections, initial TS optimization,
                  C. Bannwarth, S. Ehlert          DFT functionals, gCP, sTDA/sTD-DF
   Ed Valeev, F. Pavosevic, A. Kumar             : LibInt (2-el integral package), F12 methods
   Garnet Chan, S. Sharma, J. Yang, R. Olivares  : DMRG
   Ulf Ekstrom                                   : XCFun DFT Library
   Mihaly Kallay                                 : mrcc  (arbitrary order and MRCC methods)
   Jiri Pittner, Ondrej Demel                    : Mk-CCSD
   Frank Weinhold                                : gennbo (NPA and NBO analysis)
   Christopher J. Cramer and Donald G. Truhlar   : smd solvation model
   Lars Goerigk                                  : TD-DFT with DH, B97 family of functionals
   V. Asgeirsson, H. Jonsson                     : NEB implementation
   FAccTs GmbH                                   : IRC, NEB, NEB-TS, DLPNO-Multilevel, CI-OPT
                                                   MM, QMMM, 2- and 3-layer-ONIOM, Crystal-QMMM,
                                                   LR-CPCM, SF, NACMEs, symmetry and pop. for TD-DFT,
                                                   nearIR, NL-DFT gradient (VV10), updates on ESD,
                                                   ML-optimized integration grids
   S Lehtola, MJT Oliveira, MAL Marques          : LibXC Library
   Liviu Ungur et al                             : ANISO software


 Your calculation uses the libint2 library for the computation of 2-el integrals
 For citations please refer to: http://libint.valeyev.net

 Your ORCA version has been built with support for libXC version: 5.1.0
 For citations please refer to: https://tddft.org/programs/libxc/

 This ORCA versions uses:
   CBLAS   interface :  Fast vector & matrix operations
   LAPACKE interface :  Fast linear algebra routines
   SCALAPACK package :  Parallel linear algebra routines
   Shared memory     :  Shared parallel matrices
   BLAS/LAPACK       :  OpenBLAS 0.3.15  USE64BITINT DYNAMIC_ARCH NO_AFFINITY Prescott SINGLE_THREADED
        Core in use  :  Prescott
   Copyright (c) 2011-2014, The OpenBLAS Project


================================================================================

----- Orbital basis set information -----
Your calculation utilizes the basis: cc-pVTZ 
       H, B-Ne : Obtained from the ccRepo (grant-hill.group.shef.ac.uk/ccrepo) Feb. 2017
                 T. H. Dunning, Jr., J. Chem. Phys. 90, 1007 (1989)
            He : Obtained from the ccRepo (grant-hill.group.shef.ac.uk/ccrepo) Feb. 2017
                 D. E. Woon, T. H. Dunning, Jr., J. Chem. Phys. 100, 2975 (1994)
  Li-Be, Na-Mg : Obtained from the ccRepo (grant-hill.group.shef.ac.uk/ccrepo) Feb. 2017
                 B. P. Prascher, D. E. Woon, K. A. Peterson, T. H. Dunning, Jr., A. K. Wilson, Theor. Chem. Acc. 128, 69 (2011)
         Al-Ar : Obtained from the ccRepo (grant-hill.group.shef.ac.uk/ccrepo) Feb. 2017
                 D. E. Woon, T. H. Dunning, Jr., J. Chem. Phys. 98, 1358 (1993)
            Ca : Obtained from the Peterson Research Group Website (tyr0.chem.wsu.edu/~kipeters) Feb. 2017
                 J. Koput, K. A. Peterson, J. Phys. Chem. 106, 9595 (2002)
         Sc-Zn : Obtained from the ccRepo (grant-hill.group.shef.ac.uk/ccrepo) Feb. 2017
                 N. B. Balabanov, K. A. Peterson, J. Chem. Phys. 123, 064107 (2005)
                 N. B. Balabanov, K. A. Peterson, J. Chem. Phys. 125, 074110 (2006)
         Ga-Kr : Obtained from the ccRepo (grant-hill.group.shef.ac.uk/ccrepo) Feb. 2017
                 A. K. Wilson, D. E. Woon, K. A. Peterson, T. H. Dunning, Jr., J. Chem. Phys. 110, 7667 (1999)
             Y : Obtained from the ccRepo (grant-hill.group.shef.ac.uk/ccrepo) Feb. 2017
                 K. A. Peterson, D. Figgen, M. Dolg, H. Stoll, J. Chem. Phys. 126, 124101 (2007)
        Ag, Au : Obtained from the Peterson Research Group Website (tyr0.chem.wsu.edu/~kipeters) Feb. 2017
                 K. A. Peterson, C. Puzzarini, Theor. Chem. Acc. 114, 283 (2005)

----- AuxC basis set information -----
Your calculation utilizes the auxiliary basis: cc-pVTZ/C 
  Obtained from the EMSL Basis Set Exchange (bse.pnl.gov) Feb. 2017
  H-He, B-F, Al-Ar, Ga-Kr : F. Weigend, A. Kohn, C. Hattig, J. Chem. Phys. 116, 3175 (2002)
             Li-Be, Na-Mg : C. Haettig, Phys. Chem. Chem. Phys. 7, 59 (2005)
                       Ne : C. Haettig, Phys. Chem. Chem. Phys. 7, 59 (2005)
                            F. Weigend, A. Kohn, C. Hattig, J. Chem. Phys. 116, 3175 (2002)
                    Sc-Zn : J. G. Hill, J. A. Platts, J. Chem. Phys. 128, 044104 (2008)

================================================================================
                                        WARNINGS
                       Please study these warnings very carefully!
================================================================================

WARNING: Old DensityContainer found on disk!
         Will remove this file - 
         If you want to keep old densities, please start your calculation with a different basename. 


WARNING: Post HF methods need fully converged wavefunctions
  ===> : Setting SCFConvForced true
         You can overwrite this default with %scf ConvForced false 


WARNING: MDCI localization with Augmented Hessian Foster-Boys
  ===> : Switching off randomization!

INFO   : the flag for use of the SHARK integral package has been found!

================================================================================
                                       INPUT FILE
================================================================================
NAME = input
|  1> ! DLPNO-CCSD(T) cc-pVTZ cc-pVTZ/C TIGHTPNO TIGHTSCF
|  2> %maxcore 10000
|  3> %pal
|  4> nprocs 16
|  5> end
|  6> *xyz -1 1
|  7> H 4.850893220835 12.924978060495 7.689785237142
|  8> C 5.342610000000 11.981000000000 7.872870000000
|  9> H 5.829600000000 11.689700000000 6.936930000000
| 10> H 4.594560000000 11.209900000000 8.077780000000
| 11> C 6.365050000000 11.900400000000 8.987300000000
| 12> H 5.863200000000 11.963600000000 9.956130000000
| 13> H 7.059210000000 12.738100000000 8.921720000000
| 14> C 7.113840000000 10.570900000000 8.897970000000
| 15> H 7.851430000000 10.602400000000 8.100980000000
| 16> H 6.411130000000 9.778880000000 8.645860000000
| 17> N 7.748350000000 10.134400000000 10.134500000000
| 18> H 7.529230000000 9.209770000000 10.505000000000
| 19> C 8.667230000000 10.793200000000 10.821300000000
| 20> N 9.209800000000 11.916100000000 10.323800000000
| 21> H 9.486870000000 11.780700000000 9.343020000000
| 22> H 9.976520000000 12.267200000000 10.874000000000
| 23> N 9.004220000000 10.340100000000 12.019000000000
| 24> H 9.673000000000 10.831000000000 12.598700000000
| 25> H 8.651600000000 9.432330000000 12.294700000000
| 26> C 13.405400000000 10.597500000000 9.133950000000
| 27> H 13.918400000000 10.393600000000 10.062700000000
| 28> H 13.953100000000 11.043900000000 8.318060000000
| 29> C 12.123500000000 10.303500000000 8.983780000000
| 30> C 11.395300000000 10.659800000000 7.701590000000
| 31> O 12.029100000000 10.686900000000 6.643140000000
| 32> O 10.160600000000 10.934000000000 7.837080000000
| 33> O 11.381300000000 9.787680000000 10.016900000000
| 34> C 11.269000000000 8.344330000000 10.160900000000
| 35> H 10.876700000000 8.219880000000 11.168400000000
| 36> C 12.636200000000 7.767670000000 10.058000000000
| 37> H 13.331100000000 7.965670000000 10.859500000000
| 38> C 13.082500000000 7.225950000000 8.930980000000
| 39> C 12.158600000000 7.030840000000 7.812800000000
| 40> H 12.585700000000 6.704530000000 6.875190000000
| 41> C 10.852000000000 7.249340000000 7.930780000000
| 42> H 10.196900000000 7.083000000000 7.083920000000
| 43> C 10.228700000000 7.770170000000 9.188070000000
| 44> H 9.583710000000 8.610870000000 8.920760000000
| 45> O 9.449030000000 6.740250000000 9.775530000000
| 46> H 8.879960000000 7.105470000000 10.501100000000
| 47> C 14.572900000000 7.053340000000 8.722920000000
| 48> O 15.303400000000 6.888440000000 9.722510000000
| 49> O 14.964200000000 7.180140000000 7.537060000000
| 50> *
| 51> 
| 52>                          ****END OF INPUT****
================================================================================

                       ****************************
                       * Single Point Calculation *
                       ****************************

---------------------------------
CARTESIAN COORDINATES (ANGSTROEM)
---------------------------------
  H      4.850893   12.924978    7.689785
  C      5.342610   11.981000    7.872870
  H      5.829600   11.689700    6.936930
  H      4.594560   11.209900    8.077780
  C      6.365050   11.900400    8.987300
  H      5.863200   11.963600    9.956130
  H      7.059210   12.738100    8.921720
  C      7.113840   10.570900    8.897970
  H      7.851430   10.602400    8.100980
  H      6.411130    9.778880    8.645860
  N      7.748350   10.134400   10.134500
  H      7.529230    9.209770   10.505000
  C      8.667230   10.793200   10.821300
  N      9.209800   11.916100   10.323800
  H      9.486870   11.780700    9.343020
  H      9.976520   12.267200   10.874000
  N      9.004220   10.340100   12.019000
  H      9.673000   10.831000   12.598700
  H      8.651600    9.432330   12.294700
  C     13.405400   10.597500    9.133950
  H     13.918400   10.393600   10.062700
  H     13.953100   11.043900    8.318060
  C     12.123500   10.303500    8.983780
  C     11.395300   10.659800    7.701590
  O     12.029100   10.686900    6.643140
  O     10.160600   10.934000    7.837080
  O     11.381300    9.787680   10.016900
  C     11.269000    8.344330   10.160900
  H     10.876700    8.219880   11.168400
  C     12.636200    7.767670   10.058000
  H     13.331100    7.965670   10.859500
  C     13.082500    7.225950    8.930980
  C     12.158600    7.030840    7.812800
  H     12.585700    6.704530    6.875190
  C     10.852000    7.249340    7.930780
  H     10.196900    7.083000    7.083920
  C     10.228700    7.770170    9.188070
  H      9.583710    8.610870    8.920760
  O      9.449030    6.740250    9.775530
  H      8.879960    7.105470   10.501100
  C     14.572900    7.053340    8.722920
  O     15.303400    6.888440    9.722510
  O     14.964200    7.180140    7.537060

----------------------------
CARTESIAN COORDINATES (A.U.)
----------------------------
  NO LB      ZA    FRAG     MASS         X           Y           Z
   0 H     1.0000    0     1.008    9.166860   24.424669   14.531588
   1 C     6.0000    0    12.011   10.096070   22.640809   14.877568
   2 H     1.0000    0     1.008   11.016347   22.090332   13.108898
   3 H     1.0000    0     1.008    8.682460   21.183641   15.264792
   4 C     6.0000    0    12.011   12.028201   22.488497   16.983536
   5 H     1.0000    0     1.008   11.079842   22.607928   18.814359
   6 H     1.0000    0     1.008   13.339974   24.071520   16.859607
   7 C     6.0000    0    12.011   13.443209   19.976106   16.814726
   8 H     1.0000    0     1.008   14.837052   20.035632   15.308634
   9 H     1.0000    0     1.008   12.115280   18.479405   16.338308
  10 N     7.0000    0    14.007   14.642259   19.151241   19.151430
  11 H     1.0000    0     1.008   14.228183   17.403943   19.851573
  12 C     6.0000    0    12.011   16.378691   20.396192   20.449293
  13 N     7.0000    0    14.007   17.404000   22.518166   19.509155
  14 H     1.0000    0     1.008   17.927586   22.262297   17.655749
  15 H     1.0000    0     1.008   18.852891   23.181648   20.548882
  16 N     7.0000    0    14.007   17.015510   19.539957   22.712618
  17 H     1.0000    0     1.008   18.279321   20.467624   23.808093
  18 H     1.0000    0     1.008   16.349155   17.824521   23.233616
  19 C     6.0000    0    12.011   25.332535   20.026373   17.260664
  20 H     1.0000    0     1.008   26.301964   19.641058   19.015747
  21 H     1.0000    0     1.008   26.367538   20.869946   15.718855
  22 C     6.0000    0    12.011   22.910095   19.470793   16.976884
  23 C     6.0000    0    12.011   21.533996   20.144103   14.553896
  24 O     8.0000    0    15.999   22.731705   20.195314   12.553715
  25 O     8.0000    0    15.999   19.200751   20.662266   14.809935
  26 O     8.0000    0    15.999   21.507540   18.496035   18.929198
  27 C     6.0000    0    12.011   21.295324   15.768498   19.201318
  28 H     1.0000    0     1.008   20.553984   15.533322   21.105217
  29 C     6.0000    0    12.011   23.878957   14.678769   19.006865
  30 H     1.0000    0     1.008   25.192128   15.052935   20.521481
  31 C     6.0000    0    12.011   24.722342   13.655067   16.877106
  32 C     6.0000    0    12.011   22.976424   13.286362   14.764052
  33 H     1.0000    0     1.008   23.783526   12.669726   12.992226
  34 C     6.0000    0    12.011   20.507308   13.699267   14.987002
  35 H     1.0000    0     1.008   19.269348   13.384930   13.386669
  36 C     6.0000    0    12.011   19.329442   14.683493   17.362936
  37 H     1.0000    0     1.008   18.110587   16.272186   16.857793
  38 O     8.0000    0    15.999   17.856079   12.737227   18.473075
  39 H     1.0000    0     1.008   16.780692   13.427392   19.844203
  40 C     6.0000    0    12.011   27.538790   13.328881   16.483930
  41 O     8.0000    0    15.999   28.919235   13.017265   18.372881
  42 O     8.0000    0    15.999   28.278240   13.568498   14.242979

--------------------------------
INTERNAL COORDINATES (ANGSTROEM)
--------------------------------
 H      0   0   0     0.000000000000     0.00000000     0.00000000
 C      1   0   0     1.080000000000     0.00000000     0.00000000
 H      2   1   0     1.094531239253   106.87205777     0.00000000
 H      2   1   3     1.093691967878   109.66991356   245.43754255
 C      2   1   3     1.514540900240   118.59491010   122.67247955
 H      5   2   1     1.092922335484   109.82881486    70.79641010
 H      5   2   1     1.089908313575   110.16843956   312.52110810
 C      5   2   1     1.528475241213   109.51197979   190.57366600
 H      8   5   2     1.086381295034   110.50346669    76.90659608
 H      8   5   2     1.088419255894   109.28096654   319.63053924
 N      8   5   2     1.456757231319   115.11285782   201.73149329
 H     11   8   5     1.019913947988   119.10531654   125.16508084
 C     11   8   5     1.322895360337   126.44143435   301.01501320
 N     13  11   8     1.342681222368   120.31811319   352.78658664
 H     14  13  11     1.028119814662   110.62358978   313.04493215
 H     14  13  11     1.006901588240   113.38160953   187.30651683
 N     13  11   8     1.324140158782   118.42160825   170.81680244
 H     17  13  11     1.012077856887   121.35142117   182.62056992
 H     17  13  11     1.012125351575   117.68588677     9.37789037
 C     15  14  13     4.098603404307   110.14100672   267.22577715
 H     20  15  14     1.080426199469   117.68327119     5.75157528
 H     20  15  14     1.079316794134   113.84837432   219.33126513
 C     20  15  14     1.323727554635    31.13502546   110.65404973
 C     23  20  15     1.516982572774   120.56958149    83.77059880
 O     24  23  20     1.233998886750   118.92006263    30.26784561
 O     24  23  20     1.272017008573   115.24879348   211.62684271
 O     23  20  15     1.372686434259   121.44531616   270.04043214
 C     27  23  20     1.454856182755   119.27698524   267.78626296
 H     28  27  23     1.088321341562   103.46778320   165.35221187
 C     28  27  23     1.487400754874   107.86835034    48.19269652
 H     30  28  27     1.079116425600   117.99496664    68.92134196
 C     30  28  27     1.327711688884   121.72789377   260.51073557
 C     32  30  28     1.463552402376   119.38840665   351.94248949
 H     33  32  30     1.080742864052   116.97552114   172.49145547
 C     33  32  30     1.329986876025   122.03897206   352.87035888
 H     35  33  32     1.083511359054   119.96180453   180.71336286
 C     35  33  32     1.496844989637   122.73551863     2.90908708
 H     37  35  33     1.092814360356   107.93798988   130.33323943
 O     37  35  33     1.419059465597   108.90358587   249.24140169
 H     39  37  35     0.991805494137   110.53868855   191.58711317
 C     32  30  28     1.514719556783   119.59304532   160.78717818
 O     41  32  30     1.249000571697   118.72410168    29.11367197
 O     41  32  30     1.255172446160   115.15106448   213.59244718

---------------------------
INTERNAL COORDINATES (A.U.)
---------------------------
 H      0   0   0     0.000000000000     0.00000000     0.00000000
 C      1   0   0     2.040904224634     0.00000000     0.00000000
 H      2   1   0     2.068364287209   106.87205777     0.00000000
 H      2   1   3     2.066778294158   109.66991356   245.43754255
 C      2   1   3     2.862067520076   118.59491010   122.67247955
 H      5   2   1     2.065323899711   109.82881486    70.79641010
 H      5   2   1     2.059628223741   110.16843956   312.52110810
 C      5   2   1     2.888399608371   109.51197979   190.57366600
 H      8   5   2     2.052963124629   110.50346669    76.90659608
 H      8   5   2     2.056814312525   109.28096654   319.63053924
 N      8   5   2     2.752872210802   115.11285782   201.73149329
 H     11   8   5     1.927358041863   119.10531654   125.16508084
 C     11   8   5     2.499909934871   126.44143435   301.01501320
 N     13  11   8     2.537299795434   120.31811319   352.78658664
 H     14  13  11     1.942864882568   110.62358978   313.04493215
 H     14  13  11     1.902768245584   113.38160953   187.30651683
 N     13  11   8     2.502262263026   118.42160825   170.81680244
 H     17  13  11     1.912549975721   121.35142117   182.62056992
 H     17  13  11     1.912639727675   117.68588677     9.37789037
 C     15  14  13     7.745237965698   110.14100672   267.22577715
 H     20  15  14     2.041709624911   117.68327119     5.75157528
 H     20  15  14     2.039613152655   113.84837432   219.33126513
 C     20  15  14     2.501482554185    31.13502546   110.65404973
 C     23  20  15     2.866681612474   120.56958149    83.77059880
 O     24  23  20     2.331919945521   118.92006263    30.26784561
 O     24  23  20     2.403763783893   115.24879348   211.62684271
 O     23  20  15     2.594001428499   121.44531616   270.04043214
 C     27  23  20     2.749279749649   119.27698524   267.78626296
 H     28  27  23     2.056629281255   103.46778320   165.35221187
 C     28  27  23     2.810780078100   107.86835034    48.19269652
 H     30  28  27     2.039234511000   117.99496664    68.92134196
 C     30  28  27     2.509011476797   121.72789377   260.51073557
 C     32  30  28     2.765713223133   119.38840665   351.94248949
 H     33  32  30     2.042308034249   116.97552114   172.49145547
 C     33  32  30     2.513310957398   122.03897206   352.87035888
 H     35  33  32     2.047539731606   119.96180453   180.71336286
 C     35  33  32     2.828627095345   122.73551863     2.90908708
 H     37  35  33     2.065119856289   107.93798988   130.33323943
 O     37  35  33     2.681633757727   108.90358587   249.24140169
 H     39  37  35     1.874240762037   110.53868855   191.58711317
 C     32  30  28     2.862405132014   119.59304532   160.78717818
 O     41  32  30     2.360269021619   118.72410168    29.11367197
 O     41  32  30     2.371932174087   115.15106448   213.59244718

---------------------
BASIS SET INFORMATION
---------------------
There are 4 groups of distinct atoms

 Group   1 Type H   : 5s2p1d contracted to 3s2p1d pattern {311/11/1}
 Group   2 Type C   : 18s5p2d1f contracted to 4s3p2d1f pattern {8811/311/11/1}
 Group   3 Type N   : 18s5p2d1f contracted to 4s3p2d1f pattern {8811/311/11/1}
 Group   4 Type O   : 18s5p2d1f contracted to 4s3p2d1f pattern {8811/311/11/1}

Atom   0H    basis set group =>   1
Atom   1C    basis set group =>   2
Atom   2H    basis set group =>   1
Atom   3H    basis set group =>   1
Atom   4C    basis set group =>   2
Atom   5H    basis set group =>   1
Atom   6H    basis set group =>   1
Atom   7C    basis set group =>   2
Atom   8H    basis set group =>   1
Atom   9H    basis set group =>   1
Atom  10N    basis set group =>   3
Atom  11H    basis set group =>   1
Atom  12C    basis set group =>   2
Atom  13N    basis set group =>   3
Atom  14H    basis set group =>   1
Atom  15H    basis set group =>   1
Atom  16N    basis set group =>   3
Atom  17H    basis set group =>   1
Atom  18H    basis set group =>   1
Atom  19C    basis set group =>   2
Atom  20H    basis set group =>   1
Atom  21H    basis set group =>   1
Atom  22C    basis set group =>   2
Atom  23C    basis set group =>   2
Atom  24O    basis set group =>   4
Atom  25O    basis set group =>   4
Atom  26O    basis set group =>   4
Atom  27C    basis set group =>   2
Atom  28H    basis set group =>   1
Atom  29C    basis set group =>   2
Atom  30H    basis set group =>   1
Atom  31C    basis set group =>   2
Atom  32C    basis set group =>   2
Atom  33H    basis set group =>   1
Atom  34C    basis set group =>   2
Atom  35H    basis set group =>   1
Atom  36C    basis set group =>   2
Atom  37H    basis set group =>   1
Atom  38O    basis set group =>   4
Atom  39H    basis set group =>   1
Atom  40C    basis set group =>   2
Atom  41O    basis set group =>   4
Atom  42O    basis set group =>   4
---------------------------------
AUXILIARY/C BASIS SET INFORMATION
---------------------------------
There are 4 groups of distinct atoms

 Group   1 Type H   : 4s3p2d1f contracted to 4s3p2d1f pattern {1111/111/11/1}
 Group   2 Type C   : 8s6p5d3f1g contracted to 8s6p5d3f1g pattern {11111111/111111/11111/111/1}
 Group   3 Type N   : 8s6p5d3f1g contracted to 8s6p5d3f1g pattern {11111111/111111/11111/111/1}
 Group   4 Type O   : 8s6p5d3f1g contracted to 8s6p5d3f1g pattern {11111111/111111/11111/111/1}

Atom   0H    basis set group =>   1
Atom   1C    basis set group =>   2
Atom   2H    basis set group =>   1
Atom   3H    basis set group =>   1
Atom   4C    basis set group =>   2
Atom   5H    basis set group =>   1
Atom   6H    basis set group =>   1
Atom   7C    basis set group =>   2
Atom   8H    basis set group =>   1
Atom   9H    basis set group =>   1
Atom  10N    basis set group =>   3
Atom  11H    basis set group =>   1
Atom  12C    basis set group =>   2
Atom  13N    basis set group =>   3
Atom  14H    basis set group =>   1
Atom  15H    basis set group =>   1
Atom  16N    basis set group =>   3
Atom  17H    basis set group =>   1
Atom  18H    basis set group =>   1
Atom  19C    basis set group =>   2
Atom  20H    basis set group =>   1
Atom  21H    basis set group =>   1
Atom  22C    basis set group =>   2
Atom  23C    basis set group =>   2
Atom  24O    basis set group =>   4
Atom  25O    basis set group =>   4
Atom  26O    basis set group =>   4
Atom  27C    basis set group =>   2
Atom  28H    basis set group =>   1
Atom  29C    basis set group =>   2
Atom  30H    basis set group =>   1
Atom  31C    basis set group =>   2
Atom  32C    basis set group =>   2
Atom  33H    basis set group =>   1
Atom  34C    basis set group =>   2
Atom  35H    basis set group =>   1
Atom  36C    basis set group =>   2
Atom  37H    basis set group =>   1
Atom  38O    basis set group =>   4
Atom  39H    basis set group =>   1
Atom  40C    basis set group =>   2
Atom  41O    basis set group =>   4
Atom  42O    basis set group =>   4

Checking for AutoStart:
The File: input.gbw exists
Trying to determine its content:
     ... Fine, the file contains calculation information
     ... Fine, the calculation information was read
     ... Fine, the file contains a basis set
     ... Fine, the basis set was read
     ... Fine, the file contains a geometry
     ... Fine, the geometry was read
     ... Fine, the file contains a set of orbitals
     ... Fine, the orbitals can be read
     => possible old guess file was deleted
     => GBW file was renamed to GES file
     => GES file is set as startup file
     => Guess is set to MORead
     ... now leaving AutoStart



           ************************************************************
           *        Program running with 16 parallel MPI-processes    *
           *              working on a common directory               *
           ************************************************************
------------------------------------------------------------------------------
                           ORCA GTO INTEGRAL CALCULATION
------------------------------------------------------------------------------
------------------------------------------------------------------------------
                   ___                                                        
                  /   \      - P O W E R E D   B Y -                         
                 /     \                                                     
                 |  |  |   _    _      __       _____    __    __             
                 |  |  |  | |  | |    /  \     |  _  \  |  |  /  |          
                  \  \/   | |  | |   /    \    | | | |  |  | /  /          
                 / \  \   | |__| |  /  /\  \   | |_| |  |  |/  /          
                |  |  |   |  __  | /  /__\  \  |    /   |      \           
                |  |  |   | |  | | |   __   |  |    \   |  |\   \          
                \     /   | |  | | |  |  |  |  | |\  \  |  | \   \       
                 \___/    |_|  |_| |__|  |__|  |_| \__\ |__|  \__/        
                                                                              
                      - O R C A' S   B I G   F R I E N D -                    
                                      &                                       
                       - I N T E G R A L  F E E D E R -                       
                                                                              
 v1 FN, 2020, v2 2021                                                         
------------------------------------------------------------------------------


Reading SHARK input file input.SHARKINP.tmp ... ok
----------------------
SHARK INTEGRAL PACKAGE
----------------------

Number of atoms                             ...     43
Number of basis functions                   ...   1108
Number of shells                            ...    488
Maximum angular momentum                    ...      3
Integral batch strategy                     ... SHARK/LIBINT Hybrid
RI-J (if used) integral strategy            ... SPLIT-RIJ (Revised 2003 algorithm where possible)
Printlevel                                  ...      1
Contraction scheme used                     ... PARTIAL GENERAL contraction
Coulomb Range Separation                    ... NOT USED
Exchange Range Separation                   ... NOT USED
Finite Nucleus Model                        ... NOT USED
Auxiliary Coulomb fitting basis             ... NOT available
Auxiliary J/K fitting basis                 ... NOT available
Auxiliary Correlation fitting basis         ... AVAILABLE
   # of basis functions in Aux-C            ...   2463
   # of shells in Aux-C                     ...    729
   Maximum angular momentum in Aux-C        ...      4
Auxiliary 'external' fitting basis          ... NOT available
Integral threshold                          ...     2.500000e-11
Primitive cut-off                           ...     2.500000e-12
Primitive pair pre-selection threshold      ...     2.500000e-12

Calculating pre-screening integrals         ... done (  0.3 sec) Dimension = 488
Calculating pre-screening integrals (ORCA)  ... done (  0.4 sec) Dimension = 350
Organizing shell pair data                  ... done (  8.1 sec)
Shell pair information
Total number of shell pairs                 ...    119316
Shell pairs after pre-screening             ...     61142
Total number of primitive shell pairs       ...    165154
Primitive shell pairs kept                  ...     74183
          la=0 lb=0:  17848 shell pairs
          la=1 lb=0:  18001 shell pairs
          la=1 lb=1:   4226 shell pairs
          la=2 lb=0:   9358 shell pairs
          la=2 lb=1:   4634 shell pairs
          la=2 lb=2:   1284 shell pairs
          la=3 lb=0:   3139 shell pairs
          la=3 lb=1:   1603 shell pairs
          la=3 lb=2:    877 shell pairs
          la=3 lb=3:    172 shell pairs

Calculating one electron integrals          ... done (  0.1 sec)
Calculating RI/C V-Matrix + Cholesky decomp.... done (  0.4 sec)
Calculating Nuclear repulsion               ... done (  0.0 sec) ENN=   2095.063415346290 Eh

SHARK setup successfully completed in 210.9 seconds

Maximum memory used throughout the entire GTOINT-calculation: 84.7 MB


           ************************************************************
           *        Program running with 16 parallel MPI-processes    *
           *              working on a common directory               *
           ************************************************************
-------------------------------------------------------------------------------
                                 ORCA SCF
-------------------------------------------------------------------------------

------------
SCF SETTINGS
------------
Hamiltonian:
 Ab initio Hamiltonian  Method          .... Hartree-Fock(GTOs)


General Settings:
 Integral files         IntName         .... input
 Hartree-Fock type      HFTyp           .... RHF
 Total Charge           Charge          ....   -1
 Multiplicity           Mult            ....    1
 Number of Electrons    NEL             ....  174
 Basis Dimension        Dim             ....  970
 Nuclear Repulsion      ENuc            ....   2095.0634153463 Eh

Convergence Acceleration:
 DIIS                   CNVDIIS         .... on
   Start iteration      DIISMaxIt       ....    12
   Startup error        DIISStart       ....  0.200000
   # of expansion vecs  DIISMaxEq       ....     5
   Bias factor          DIISBfac        ....   1.050
   Max. coefficient     DIISMaxC        ....  10.000
 Trust-Rad. Augm. Hess. CNVTRAH         .... auto
   Auto Start mean grad. ratio tolernc. ....  1.125000
   Auto Start start iteration           ....     1
   Auto Start num. interpolation iter.  ....    10
   Max. Number of Micro iterations      ....    16
   Max. Number of Macro iterations      .... Maxiter - #DIIS iter
   Number of Davidson start vectors     ....     2
   Converg. threshold I  (grad. norm)   ....   1.000e-05
   Converg. threshold II (energy diff.) ....   1.000e-08
   Grad. Scal. Fac. for Micro threshold ....   0.100
   Minimum threshold for Micro iter.    ....   0.010
   NR start threshold (gradient norm)   ....   0.001
   Initial trust radius                 ....   0.400
   Minimum AH scaling param. (alpha)    ....   1.000
   Maximum AH scaling param. (alpha)    .... 1000.000
   Orbital update algorithm             .... Taylor
   White noise on init. David. guess    .... on
   Maximum white noise                  ....   0.010
   Quad. conv. algorithm                .... NR
 SOSCF                  CNVSOSCF        .... on
   Start iteration      SOSCFMaxIt      ....   150
   Startup grad/error   SOSCFStart      ....  0.003300
 Level Shifting         CNVShift        .... on
   Level shift para.    LevelShift      ....    0.2500
   Turn off err/grad.   ShiftErr        ....    0.0010
 Zerner damping         CNVZerner       .... off
 Static damping         CNVDamp         .... on
   Fraction old density DampFac         ....    0.7000
   Max. Damping (<1)    DampMax         ....    0.9800
   Min. Damping (>=0)   DampMin         ....    0.0000
   Turn off err/grad.   DampErr         ....    0.1000
 Fernandez-Rico         CNVRico         .... off

SCF Procedure:
 Maximum # iterations   MaxIter         ....   125
 SCF integral mode      SCFMode         .... Direct
   Integral package                     .... SHARK and LIBINT hybrid scheme
 Reset frequency        DirectResetFreq ....    20
 Integral Threshold     Thresh          ....  2.500e-11 Eh
 Primitive CutOff       TCut            ....  2.500e-12 Eh

Convergence Tolerance:
 Convergence Check Mode ConvCheckMode   .... Total+1el-Energy
 Convergence forced     ConvForced      .... 1
 Energy Change          TolE            ....  1.000e-08 Eh
 1-El. energy change                    ....  1.000e-05 Eh
 Orbital Gradient       TolG            ....  1.000e-05
 Orbital Rotation angle TolX            ....  1.000e-05
 DIIS Error             TolErr          ....  5.000e-07


Diagonalization of the overlap matrix:
Smallest eigenvalue                        ... 5.288e-05
Time for diagonalization                   ...    0.540 sec
Threshold for overlap eigenvalues          ... 1.000e-08
Number of eigenvalues below threshold      ... 0
Time for construction of square roots      ...   53.896 sec
Total time needed                          ...   54.440 sec

---------------------
INITIAL GUESS: MOREAD
---------------------
Guess MOs are being read from file: input.ges
Input Geometry matches current geometry (good)
Input basis set matches current basis set (good)
MOs were renormalized
MOs were reorthogonalized (Cholesky)
                      ------------------
                      INITIAL GUESS DONE (   1.4 sec)
                      ------------------
--------------
SCF ITERATIONS
--------------
ITER       Energy         Delta-E        Max-DP      RMS-DP      [F,P]     Damp
               ***  Starting incremental Fock matrix formation  ***
                      *** Initiating the SOSCF procedure ***
                      *** Re-Reading the Fockian *** 
                      *** Removing any level shift *** 
ITER      Energy       Delta-E        Grad      Rot      Max-DP    RMS-DP
  0  -1154.66532136 -1154.6653213598  0.000001  0.000001  0.000002  0.000000
               *** Restarting incremental Fock matrix formation ***
                  ***Gradient check signals convergence***
              ***Rediagonalizing the Fockian in SOSCF/NRSCF***

               *****************************************************
               *                     SUCCESS                       *
               *           SCF CONVERGED AFTER   1 CYCLES          *
               *****************************************************


----------------
TOTAL SCF ENERGY
----------------

Total Energy       :        -1154.66532136 Eh          -31420.04076 eV

Components:
Nuclear Repulsion  :         2095.06341535 Eh           57009.57384 eV
Electronic Energy  :        -3249.72873671 Eh          -88429.61460 eV
One Electron Energy:        -5770.36219654 Eh         -157019.53809 eV
Two Electron Energy:         2520.63345984 Eh           68589.92349 eV

Virial components:
Potential Energy   :        -2308.22372060 Eh          -62809.96063 eV
Kinetic Energy     :         1153.55839924 Eh           31389.91988 eV
Virial Ratio       :            2.00095957


---------------
SCF CONVERGENCE
---------------

  Last Energy change         ...   -3.8654e-11  Tolerance :   1.0000e-08
  Last MAX-Density change    ...    9.5196e-07  Tolerance :   1.0000e-07
  Last RMS-Density change    ...    7.9346e-09  Tolerance :   5.0000e-09
  Last Orbital Gradient      ...    4.1454e-07  Tolerance :   1.0000e-05
  Last Orbital Rotation      ...    8.0096e-07  Tolerance :   1.0000e-05

             **** THE GBW FILE WAS UPDATED (input.gbw) ****
             **** DENSITY input.scfp WAS UPDATED ****
             **** ENERGY FILE WAS UPDATED (input.en.tmp) ****
             **** THE GBW FILE WAS UPDATED (input.gbw) ****
             **** DENSITY input.scfp WAS UPDATED ****
----------------
ORBITAL ENERGIES
----------------

  NO   OCC          E(Eh)            E(eV) 
   0   2.0000     -20.473911      -557.1234 
   1   2.0000     -20.450294      -556.4808 
   2   2.0000     -20.344977      -553.6150 
   3   2.0000     -20.327830      -553.1484 
   4   2.0000     -20.282840      -551.9241 
   5   2.0000     -20.281674      -551.8924 
   6   2.0000     -15.585972      -424.1159 
   7   2.0000     -15.576940      -423.8701 
   8   2.0000     -15.535475      -422.7418 
   9   2.0000     -11.369654      -309.3840 
  10   2.0000     -11.222055      -305.3676 
  11   2.0000     -11.180881      -304.2472 
  12   2.0000     -11.179269      -304.2034 
  13   2.0000     -11.177711      -304.1610 
  14   2.0000     -11.173341      -304.0421 
  15   2.0000     -11.171446      -303.9905 
  16   2.0000     -11.142265      -303.1964 
  17   2.0000     -11.133040      -302.9454 
  18   2.0000     -11.094085      -301.8854 
  19   2.0000     -11.090884      -301.7983 
  20   2.0000     -11.082155      -301.5608 
  21   2.0000     -11.081447      -301.5415 
  22   2.0000     -11.077734      -301.4405 
  23   2.0000      -1.330377       -36.2014 
  24   2.0000      -1.279610       -34.8200 
  25   2.0000      -1.266318       -34.4583 
  26   2.0000      -1.218250       -33.1503 
  27   2.0000      -1.197387       -32.5826 
  28   2.0000      -1.169438       -31.8220 
  29   2.0000      -1.167017       -31.7562 
  30   2.0000      -1.115789       -30.3622 
  31   2.0000      -1.061775       -28.8924 
  32   2.0000      -1.023075       -27.8393 
  33   2.0000      -0.995541       -27.0901 
  34   2.0000      -0.914432       -24.8829 
  35   2.0000      -0.910843       -24.7853 
  36   2.0000      -0.885179       -24.0870 
  37   2.0000      -0.857292       -23.3281 
  38   2.0000      -0.824988       -22.4491 
  39   2.0000      -0.777555       -21.1583 
  40   2.0000      -0.753973       -20.5166 
  41   2.0000      -0.743714       -20.2375 
  42   2.0000      -0.727458       -19.7951 
  43   2.0000      -0.695857       -18.9352 
  44   2.0000      -0.687880       -18.7182 
  45   2.0000      -0.642171       -17.4743 
  46   2.0000      -0.633390       -17.2354 
  47   2.0000      -0.612138       -16.6571 
  48   2.0000      -0.606978       -16.5167 
  49   2.0000      -0.601141       -16.3579 
  50   2.0000      -0.597501       -16.2588 
  51   2.0000      -0.578327       -15.7371 
  52   2.0000      -0.567772       -15.4499 
  53   2.0000      -0.554341       -15.0844 
  54   2.0000      -0.540460       -14.7067 
  55   2.0000      -0.526046       -14.3144 
  56   2.0000      -0.516162       -14.0455 
  57   2.0000      -0.510328       -13.8867 
  58   2.0000      -0.498952       -13.5772 
  59   2.0000      -0.486015       -13.2251 
  60   2.0000      -0.482280       -13.1235 
  61   2.0000      -0.468194       -12.7402 
  62   2.0000      -0.460274       -12.5247 
  63   2.0000      -0.449540       -12.2326 
  64   2.0000      -0.444696       -12.1008 
  65   2.0000      -0.439740       -11.9659 
  66   2.0000      -0.436852       -11.8874 
  67   2.0000      -0.432822       -11.7777 
  68   2.0000      -0.415946       -11.3185 
  69   2.0000      -0.409871       -11.1532 
  70   2.0000      -0.402056       -10.9405 
  71   2.0000      -0.394204       -10.7268 
  72   2.0000      -0.384506       -10.4629 
  73   2.0000      -0.378561       -10.3012 
  74   2.0000      -0.372873       -10.1464 
  75   2.0000      -0.361098        -9.8260 
  76   2.0000      -0.347570        -9.4579 
  77   2.0000      -0.313247        -8.5239 
  78   2.0000      -0.285957        -7.7813 
  79   2.0000      -0.267463        -7.2780 
  80   2.0000      -0.249986        -6.8025 
  81   2.0000      -0.244387        -6.6501 
  82   2.0000      -0.216941        -5.9033 
  83   2.0000      -0.210455        -5.7268 
  84   2.0000      -0.203652        -5.5417 
  85   2.0000      -0.187251        -5.0954 
  86   2.0000      -0.175878        -4.7859 
  87   0.0000       0.133148         3.6232 
  88   0.0000       0.173084         4.7099 
  89   0.0000       0.186563         5.0766 
  90   0.0000       0.203938         5.5494 
  91   0.0000       0.208976         5.6865 
  92   0.0000       0.225303         6.1308 
  93   0.0000       0.231597         6.3021 
  94   0.0000       0.236680         6.4404 
  95   0.0000       0.257818         7.0156 
  96   0.0000       0.264575         7.1994 
  97   0.0000       0.270740         7.3672 
  98   0.0000       0.277368         7.5476 
  99   0.0000       0.281936         7.6719 
 100   0.0000       0.284210         7.7338 
 101   0.0000       0.291581         7.9343 
 102   0.0000       0.302261         8.2249 
 103   0.0000       0.317000         8.6260 
 104   0.0000       0.324559         8.8317 
 105   0.0000       0.343471         9.3463 
 106   0.0000       0.350910         9.5488 
 107   0.0000       0.357833         9.7371 
 108   0.0000       0.364183         9.9099 
 109   0.0000       0.373364        10.1597 
 110   0.0000       0.379642        10.3306 
 111   0.0000       0.386556        10.5187 
 112   0.0000       0.393743        10.7143 
 113   0.0000       0.399636        10.8747 
 114   0.0000       0.417489        11.3605 
 115   0.0000       0.421681        11.4745 
 116   0.0000       0.428333        11.6555 
 117   0.0000       0.434153        11.8139 
 118   0.0000       0.443590        12.0707 
 119   0.0000       0.447321        12.1722 
 120   0.0000       0.457372        12.4457 
 121   0.0000       0.462378        12.5819 
 122   0.0000       0.472369        12.8538 
 123   0.0000       0.476386        12.9631 
 124   0.0000       0.484244        13.1770 
 125   0.0000       0.487220        13.2579 
 126   0.0000       0.496940        13.5224 
 127   0.0000       0.500769        13.6266 
 128   0.0000       0.507561        13.8114 
 129   0.0000       0.519403        14.1337 
 130   0.0000       0.521026        14.1779 
 131   0.0000       0.529483        14.4080 
 132   0.0000       0.541942        14.7470 
 133   0.0000       0.552114        15.0238 
 134   0.0000       0.558370        15.1940 
 135   0.0000       0.563413        15.3312 
 136   0.0000       0.567025        15.4295 
 137   0.0000       0.570096        15.5131 
 138   0.0000       0.579427        15.7670 
 139   0.0000       0.582331        15.8460 
 140   0.0000       0.592628        16.1262 
 141   0.0000       0.596584        16.2339 
 142   0.0000       0.600012        16.3272 
 143   0.0000       0.604141        16.4395 
 144   0.0000       0.607200        16.5227 
 145   0.0000       0.613220        16.6866 
 146   0.0000       0.620892        16.8953 
 147   0.0000       0.630309        17.1516 
 148   0.0000       0.632815        17.2198 
 149   0.0000       0.635440        17.2912 
 150   0.0000       0.643151        17.5010 
 151   0.0000       0.645396        17.5621 
 152   0.0000       0.648747        17.6533 
 153   0.0000       0.652768        17.7627 
 154   0.0000       0.659945        17.9580 
 155   0.0000       0.667891        18.1742 
 156   0.0000       0.673300        18.3214 
 157   0.0000       0.674740        18.3606 
 158   0.0000       0.684193        18.6178 
 159   0.0000       0.687788        18.7157 
 160   0.0000       0.692941        18.8559 
 161   0.0000       0.700667        19.0661 
 162   0.0000       0.705875        19.2078 
 163   0.0000       0.706193        19.2165 
 164   0.0000       0.711883        19.3713 
 165   0.0000       0.714851        19.4521 
 166   0.0000       0.718843        19.5607 
 167   0.0000       0.724689        19.7198 
 168   0.0000       0.728043        19.8110 
 169   0.0000       0.733048        19.9472 
 170   0.0000       0.736065        20.0294 
 171   0.0000       0.737174        20.0595 
 172   0.0000       0.746758        20.3203 
 173   0.0000       0.748329        20.3631 
 174   0.0000       0.757090        20.6015 
 175   0.0000       0.763232        20.7686 
 176   0.0000       0.769009        20.9258 
 177   0.0000       0.771288        20.9878 
 178   0.0000       0.774019        21.0621 
 179   0.0000       0.778469        21.1832 
 180   0.0000       0.781026        21.2528 
 181   0.0000       0.788731        21.4625 
 182   0.0000       0.790788        21.5184 
 183   0.0000       0.799771        21.7629 
 184   0.0000       0.805007        21.9054 
 185   0.0000       0.812392        22.1063 
 186   0.0000       0.816347        22.2139 
 187   0.0000       0.831896        22.6370 
 188   0.0000       0.834824        22.7167 
 189   0.0000       0.835839        22.7443 
 190   0.0000       0.842247        22.9187 
 191   0.0000       0.854838        23.2613 
 192   0.0000       0.858870        23.3710 
 193   0.0000       0.863209        23.4891 
 194   0.0000       0.868350        23.6290 
 195   0.0000       0.875439        23.8219 
 196   0.0000       0.878514        23.9056 
 197   0.0000       0.883935        24.0531 
 198   0.0000       0.888330        24.1727 
 199   0.0000       0.899731        24.4829 
 200   0.0000       0.903659        24.5898 
 201   0.0000       0.909529        24.7495 
 202   0.0000       0.913242        24.8506 
 203   0.0000       0.922304        25.0972 
 204   0.0000       0.937249        25.5038 
 205   0.0000       0.946575        25.7576 
 206   0.0000       0.955470        25.9997 
 207   0.0000       0.969151        26.3719 
 208   0.0000       0.972361        26.4593 
 209   0.0000       0.974456        26.5163 
 210   0.0000       0.979921        26.6650 
 211   0.0000       0.985866        26.8268 
 212   0.0000       0.989752        26.9325 
 213   0.0000       0.992960        27.0198 
 214   0.0000       0.998194        27.1623 
 215   0.0000       1.002870        27.2895 
 216   0.0000       1.008714        27.4485 
 217   0.0000       1.019365        27.7383 
 218   0.0000       1.023042        27.8384 
 219   0.0000       1.027862        27.9695 
 220   0.0000       1.033608        28.1259 
 221   0.0000       1.035358        28.1735 
 222   0.0000       1.039057        28.2742 
 223   0.0000       1.044783        28.4300 
 224   0.0000       1.053809        28.6756 
 225   0.0000       1.055368        28.7180 
 226   0.0000       1.069671        29.1072 
 227   0.0000       1.071711        29.1627 
 228   0.0000       1.072518        29.1847 
 229   0.0000       1.084142        29.5010 
 230   0.0000       1.087179        29.5837 
 231   0.0000       1.090638        29.6778 
 232   0.0000       1.092088        29.7172 
 233   0.0000       1.100237        29.9390 
 234   0.0000       1.110503        30.2183 
 235   0.0000       1.115589        30.3567 
 236   0.0000       1.120181        30.4817 
 237   0.0000       1.124249        30.5924 
 238   0.0000       1.129507        30.7354 
 239   0.0000       1.135551        30.8999 
 240   0.0000       1.141310        31.0566 
 241   0.0000       1.149613        31.2826 
 242   0.0000       1.160805        31.5871 
 243   0.0000       1.168936        31.8084 
 244   0.0000       1.178899        32.0795 
 245   0.0000       1.187044        32.3011 
 246   0.0000       1.189208        32.3600 
 247   0.0000       1.200881        32.6776 
 248   0.0000       1.206485        32.8301 
 249   0.0000       1.213877        33.0313 
 250   0.0000       1.216118        33.0922 
 251   0.0000       1.222307        33.2607 
 252   0.0000       1.227718        33.4079 
 253   0.0000       1.238162        33.6921 
 254   0.0000       1.244348        33.8604 
 255   0.0000       1.250022        34.0148 
 256   0.0000       1.260231        34.2926 
 257   0.0000       1.267491        34.4902 
 258   0.0000       1.269502        34.5449 
 259   0.0000       1.276311        34.7302 
 260   0.0000       1.284021        34.9400 
 261   0.0000       1.289889        35.0997 
 262   0.0000       1.296943        35.2916 
 263   0.0000       1.303711        35.4758 
 264   0.0000       1.306219        35.5440 
 265   0.0000       1.310031        35.6478 
 266   0.0000       1.318895        35.8890 
 267   0.0000       1.329064        36.1657 
 268   0.0000       1.333099        36.2755 
 269   0.0000       1.339373        36.4462 
 270   0.0000       1.343418        36.5563 
 271   0.0000       1.352706        36.8090 
 272   0.0000       1.357690        36.9446 
 273   0.0000       1.360909        37.0322 
 274   0.0000       1.367161        37.2023 
 275   0.0000       1.378764        37.5181 
 276   0.0000       1.383267        37.6406 
 277   0.0000       1.389678        37.8151 
 278   0.0000       1.392403        37.8892 
 279   0.0000       1.398633        38.0587 
 280   0.0000       1.410267        38.3753 
 281   0.0000       1.415257        38.5111 
 282   0.0000       1.419651        38.6307 
 283   0.0000       1.424258        38.7560 
 284   0.0000       1.438849        39.1531 
 285   0.0000       1.441776        39.2327 
 286   0.0000       1.449008        39.4295 
 287   0.0000       1.452856        39.5342 
 288   0.0000       1.460201        39.7341 
 289   0.0000       1.462260        39.7901 
 290   0.0000       1.469733        39.9935 
 291   0.0000       1.477912        40.2160 
 292   0.0000       1.486288        40.4439 
 293   0.0000       1.495284        40.6887 
 294   0.0000       1.503766        40.9196 
 295   0.0000       1.507797        41.0292 
 296   0.0000       1.509543        41.0768 
 297   0.0000       1.519266        41.3413 
 298   0.0000       1.525189        41.5025 
 299   0.0000       1.526469        41.5373 
 300   0.0000       1.531982        41.6873 
 301   0.0000       1.535447        41.7816 
 302   0.0000       1.541290        41.9406 
 303   0.0000       1.553603        42.2757 
 304   0.0000       1.560779        42.4710 
 305   0.0000       1.562559        42.5194 
 306   0.0000       1.565182        42.5908 
 307   0.0000       1.571520        42.7632 
 308   0.0000       1.579818        42.9890 
 309   0.0000       1.581661        43.0392 
 310   0.0000       1.584585        43.1188 
 311   0.0000       1.592282        43.3282 
 312   0.0000       1.600521        43.5524 
 313   0.0000       1.609147        43.7871 
 314   0.0000       1.619367        44.0652 
 315   0.0000       1.621986        44.1365 
 316   0.0000       1.626638        44.2631 
 317   0.0000       1.629173        44.3320 
 318   0.0000       1.637532        44.5595 
 319   0.0000       1.647463        44.8298 
 320   0.0000       1.652722        44.9728 
 321   0.0000       1.665229        45.3132 
 322   0.0000       1.668899        45.4130 
 323   0.0000       1.674568        45.5673 
 324   0.0000       1.688845        45.9558 
 325   0.0000       1.689182        45.9650 
 326   0.0000       1.701308        46.2949 
 327   0.0000       1.702259        46.3208 
 328   0.0000       1.711559        46.5739 
 329   0.0000       1.714541        46.6550 
 330   0.0000       1.721423        46.8423 
 331   0.0000       1.726851        46.9900 
 332   0.0000       1.734767        47.2054 
 333   0.0000       1.737415        47.2775 
 334   0.0000       1.751830        47.6697 
 335   0.0000       1.753762        47.7223 
 336   0.0000       1.761055        47.9207 
 337   0.0000       1.768983        48.1365 
 338   0.0000       1.778186        48.3869 
 339   0.0000       1.781125        48.4669 
 340   0.0000       1.796388        48.8822 
 341   0.0000       1.805873        49.1403 
 342   0.0000       1.811750        49.3002 
 343   0.0000       1.814682        49.3800 
 344   0.0000       1.823497        49.6199 
 345   0.0000       1.832112        49.8543 
 346   0.0000       1.842725        50.1431 
 347   0.0000       1.847604        50.2758 
 348   0.0000       1.852442        50.4075 
 349   0.0000       1.863228        50.7010 
 350   0.0000       1.875034        51.0223 
 351   0.0000       1.884712        51.2856 
 352   0.0000       1.896827        51.6153 
 353   0.0000       1.901728        51.7487 
 354   0.0000       1.906554        51.8800 
 355   0.0000       1.917234        52.1706 
 356   0.0000       1.919735        52.2387 
 357   0.0000       1.928291        52.4715 
 358   0.0000       1.931254        52.5521 
 359   0.0000       1.939028        52.7636 
 360   0.0000       1.953669        53.1620 
 361   0.0000       1.965226        53.4765 
 362   0.0000       1.973810        53.7101 
 363   0.0000       1.985555        54.0297 
 364   0.0000       1.989574        54.1391 
 365   0.0000       2.017175        54.8901 
 366   0.0000       2.018836        54.9353 
 367   0.0000       2.032736        55.3136 
 368   0.0000       2.038038        55.4578 
 369   0.0000       2.045876        55.6711 
 370   0.0000       2.054499        55.9058 
 371   0.0000       2.062283        56.1176 
 372   0.0000       2.078404        56.5562 
 373   0.0000       2.087084        56.7924 
 374   0.0000       2.088587        56.8333 
 375   0.0000       2.106065        57.3089 
 376   0.0000       2.113764        57.5184 
 377   0.0000       2.127605        57.8951 
 378   0.0000       2.128871        57.9295 
 379   0.0000       2.137716        58.1702 
 380   0.0000       2.151108        58.5346 
 381   0.0000       2.169914        59.0464 
 382   0.0000       2.175172        59.1894 
 383   0.0000       2.182064        59.3770 
 384   0.0000       2.183774        59.4235 
 385   0.0000       2.199641        59.8553 
 386   0.0000       2.215224        60.2793 
 387   0.0000       2.233074        60.7650 
 388   0.0000       2.243029        61.0359 
 389   0.0000       2.251341        61.2621 
 390   0.0000       2.268908        61.7401 
 391   0.0000       2.271076        61.7991 
 392   0.0000       2.298410        62.5429 
 393   0.0000       2.316388        63.0321 
 394   0.0000       2.337997        63.6201 
 395   0.0000       2.353781        64.0496 
 396   0.0000       2.373080        64.5748 
 397   0.0000       2.384648        64.8896 
 398   0.0000       2.415530        65.7299 
 399   0.0000       2.427676        66.0604 
 400   0.0000       2.449846        66.6637 
 401   0.0000       2.464063        67.0506 
 402   0.0000       2.484145        67.5970 
 403   0.0000       2.491395        67.7943 
 404   0.0000       2.526736        68.7560 
 405   0.0000       2.529230        68.8238 
 406   0.0000       2.549287        69.3696 
 407   0.0000       2.567028        69.8524 
 408   0.0000       2.582706        70.2790 
 409   0.0000       2.590083        70.4797 
 410   0.0000       2.597736        70.6880 
 411   0.0000       2.599326        70.7312 
 412   0.0000       2.606163        70.9173 
 413   0.0000       2.608556        70.9824 
 414   0.0000       2.614155        71.1348 
 415   0.0000       2.623121        71.3787 
 416   0.0000       2.635957        71.7280 
 417   0.0000       2.651879        72.1613 
 418   0.0000       2.663769        72.4849 
 419   0.0000       2.667584        72.5886 
 420   0.0000       2.682955        73.0069 
 421   0.0000       2.694133        73.3111 
 422   0.0000       2.696724        73.3816 
 423   0.0000       2.710124        73.7462 
 424   0.0000       2.718557        73.9757 
 425   0.0000       2.737156        74.4818 
 426   0.0000       2.751366        74.8685 
 427   0.0000       2.755839        74.9902 
 428   0.0000       2.763994        75.2121 
 429   0.0000       2.778100        75.5959 
 430   0.0000       2.781509        75.6887 
 431   0.0000       2.795001        76.0558 
 432   0.0000       2.803007        76.2737 
 433   0.0000       2.816139        76.6310 
 434   0.0000       2.836570        77.1870 
 435   0.0000       2.838452        77.2382 
 436   0.0000       2.847066        77.4726 
 437   0.0000       2.857791        77.7644 
 438   0.0000       2.865432        77.9724 
 439   0.0000       2.876911        78.2847 
 440   0.0000       2.884299        78.4858 
 441   0.0000       2.892826        78.7178 
 442   0.0000       2.896053        78.8056 
 443   0.0000       2.904573        79.0375 
 444   0.0000       2.918874        79.4266 
 445   0.0000       2.922955        79.5377 
 446   0.0000       2.934935        79.8636 
 447   0.0000       2.939027        79.9750 
 448   0.0000       2.941398        80.0395 
 449   0.0000       2.963081        80.6295 
 450   0.0000       2.969019        80.7911 
 451   0.0000       2.975211        80.9596 
 452   0.0000       2.984822        81.2211 
 453   0.0000       2.991789        81.4107 
 454   0.0000       3.001680        81.6799 
 455   0.0000       3.009589        81.8951 
 456   0.0000       3.018142        82.1278 
 457   0.0000       3.031316        82.4863 
 458   0.0000       3.034330        82.5683 
 459   0.0000       3.045268        82.8659 
 460   0.0000       3.053460        83.0889 
 461   0.0000       3.060607        83.2833 
 462   0.0000       3.062666        83.3394 
 463   0.0000       3.068717        83.5040 
 464   0.0000       3.076013        83.7026 
 465   0.0000       3.088066        84.0305 
 466   0.0000       3.095058        84.2208 
 467   0.0000       3.101624        84.3995 
 468   0.0000       3.104981        84.4908 
 469   0.0000       3.116016        84.7911 
 470   0.0000       3.126085        85.0651 
 471   0.0000       3.135838        85.3305 
 472   0.0000       3.142339        85.5074 
 473   0.0000       3.156484        85.8923 
 474   0.0000       3.158552        85.9486 
 475   0.0000       3.169601        86.2492 
 476   0.0000       3.172455        86.3269 
 477   0.0000       3.173737        86.3618 
 478   0.0000       3.188400        86.7608 
 479   0.0000       3.195678        86.9588 
 480   0.0000       3.199906        87.0739 
 481   0.0000       3.206504        87.2534 
 482   0.0000       3.217910        87.5638 
 483   0.0000       3.221314        87.6564 
 484   0.0000       3.223497        87.7158 
 485   0.0000       3.234797        88.0233 
 486   0.0000       3.237801        88.1050 
 487   0.0000       3.248533        88.3971 
 488   0.0000       3.253070        88.5205 
 489   0.0000       3.259058        88.6835 
 490   0.0000       3.266143        88.8763 
 491   0.0000       3.275737        89.1373 
 492   0.0000       3.285419        89.4008 
 493   0.0000       3.296652        89.7065 
 494   0.0000       3.303045        89.8804 
 495   0.0000       3.307007        89.9882 
 496   0.0000       3.315838        90.2285 
 497   0.0000       3.317425        90.2717 
 498   0.0000       3.322344        90.4056 
 499   0.0000       3.328484        90.5727 
 500   0.0000       3.331166        90.6456 
 501   0.0000       3.337093        90.8069 
 502   0.0000       3.345271        91.0294 
 503   0.0000       3.351823        91.2077 
 504   0.0000       3.357111        91.3516 
 505   0.0000       3.364056        91.5406 
 506   0.0000       3.367721        91.6403 
 507   0.0000       3.370931        91.7277 
 508   0.0000       3.381725        92.0214 
 509   0.0000       3.384140        92.0871 
 510   0.0000       3.391573        92.2894 
 511   0.0000       3.395654        92.4004 
 512   0.0000       3.402307        92.5815 
 513   0.0000       3.409577        92.7793 
 514   0.0000       3.414191        92.9048 
 515   0.0000       3.416208        92.9597 
 516   0.0000       3.422381        93.1277 
 517   0.0000       3.432046        93.3907 
 518   0.0000       3.434380        93.4542 
 519   0.0000       3.450966        93.9056 
 520   0.0000       3.453645        93.9785 
 521   0.0000       3.454811        94.0102 
 522   0.0000       3.461510        94.1925 
 523   0.0000       3.468023        94.3697 
 524   0.0000       3.472244        94.4846 
 525   0.0000       3.480285        94.7034 
 526   0.0000       3.484439        94.8164 
 527   0.0000       3.488922        94.9384 
 528   0.0000       3.492483        95.0353 
 529   0.0000       3.502757        95.3149 
 530   0.0000       3.505379        95.3862 
 531   0.0000       3.509158        95.4890 
 532   0.0000       3.520181        95.7890 
 533   0.0000       3.528747        96.0221 
 534   0.0000       3.536118        96.2227 
 535   0.0000       3.540004        96.3284 
 536   0.0000       3.546937        96.5171 
 537   0.0000       3.548384        96.5564 
 538   0.0000       3.552783        96.6761 
 539   0.0000       3.558587        96.8341 
 540   0.0000       3.562800        96.9487 
 541   0.0000       3.567844        97.0860 
 542   0.0000       3.571380        97.1822 
 543   0.0000       3.585145        97.5568 
 544   0.0000       3.588631        97.6516 
 545   0.0000       3.593703        97.7896 
 546   0.0000       3.598260        97.9136 
 547   0.0000       3.601228        97.9944 
 548   0.0000       3.605082        98.0993 
 549   0.0000       3.614280        98.3495 
 550   0.0000       3.618541        98.4655 
 551   0.0000       3.626512        98.6824 
 552   0.0000       3.629298        98.7582 
 553   0.0000       3.635089        98.9158 
 554   0.0000       3.638393        99.0057 
 555   0.0000       3.646650        99.2304 
 556   0.0000       3.648671        99.2854 
 557   0.0000       3.656564        99.5002 
 558   0.0000       3.662229        99.6543 
 559   0.0000       3.667752        99.8046 
 560   0.0000       3.671142        99.8968 
 561   0.0000       3.677599       100.0725 
 562   0.0000       3.682845       100.2153 
 563   0.0000       3.687384       100.3388 
 564   0.0000       3.692730       100.4843 
 565   0.0000       3.696314       100.5818 
 566   0.0000       3.712521       101.0228 
 567   0.0000       3.717209       101.1504 
 568   0.0000       3.726162       101.3940 
 569   0.0000       3.729691       101.4901 
 570   0.0000       3.735584       101.6504 
 571   0.0000       3.745998       101.9338 
 572   0.0000       3.747425       101.9726 
 573   0.0000       3.755439       102.1907 
 574   0.0000       3.757094       102.2357 
 575   0.0000       3.762011       102.3695 
 576   0.0000       3.779057       102.8334 
 577   0.0000       3.780196       102.8644 
 578   0.0000       3.786288       103.0301 
 579   0.0000       3.799068       103.3779 
 580   0.0000       3.804210       103.5178 
 581   0.0000       3.811397       103.7134 
 582   0.0000       3.820961       103.9736 
 583   0.0000       3.821901       103.9992 
 584   0.0000       3.825742       104.1037 
 585   0.0000       3.831206       104.2524 
 586   0.0000       3.833519       104.3154 
 587   0.0000       3.848520       104.7235 
 588   0.0000       3.852201       104.8237 
 589   0.0000       3.866149       105.2033 
 590   0.0000       3.866447       105.2114 
 591   0.0000       3.874115       105.4200 
 592   0.0000       3.875940       105.4697 
 593   0.0000       3.881928       105.6326 
 594   0.0000       3.884461       105.7016 
 595   0.0000       3.887819       105.7929 
 596   0.0000       3.899799       106.1189 
 597   0.0000       3.910178       106.4013 
 598   0.0000       3.913981       106.5048 
 599   0.0000       3.914791       106.5269 
 600   0.0000       3.921729       106.7157 
 601   0.0000       3.928815       106.9085 
 602   0.0000       3.938445       107.1705 
 603   0.0000       3.946563       107.3915 
 604   0.0000       3.949365       107.4677 
 605   0.0000       3.955855       107.6443 
 606   0.0000       3.959997       107.7570 
 607   0.0000       3.962561       107.8268 
 608   0.0000       3.968612       107.9914 
 609   0.0000       3.980848       108.3244 
 610   0.0000       3.985277       108.4449 
 611   0.0000       3.991734       108.6206 
 612   0.0000       3.997849       108.7870 
 613   0.0000       4.002645       108.9175 
 614   0.0000       4.005339       108.9908 
 615   0.0000       4.014699       109.2455 
 616   0.0000       4.022604       109.4606 
 617   0.0000       4.025402       109.5368 
 618   0.0000       4.031088       109.6915 
 619   0.0000       4.042097       109.9910 
 620   0.0000       4.048878       110.1756 
 621   0.0000       4.059963       110.4772 
 622   0.0000       4.066825       110.6639 
 623   0.0000       4.077168       110.9454 
 624   0.0000       4.083044       111.1053 
 625   0.0000       4.086732       111.2056 
 626   0.0000       4.102962       111.6473 
 627   0.0000       4.108640       111.8018 
 628   0.0000       4.122059       112.1669 
 629   0.0000       4.122379       112.1756 
 630   0.0000       4.137003       112.5736 
 631   0.0000       4.143750       112.7572 
 632   0.0000       4.147520       112.8597 
 633   0.0000       4.149315       112.9086 
 634   0.0000       4.157260       113.1248 
 635   0.0000       4.162582       113.2696 
 636   0.0000       4.174280       113.5879 
 637   0.0000       4.180553       113.7586 
 638   0.0000       4.182936       113.8235 
 639   0.0000       4.189576       114.0041 
 640   0.0000       4.198809       114.2554 
 641   0.0000       4.205234       114.4302 
 642   0.0000       4.211328       114.5961 
 643   0.0000       4.217151       114.7545 
 644   0.0000       4.219693       114.8237 
 645   0.0000       4.226501       115.0089 
 646   0.0000       4.233669       115.2040 
 647   0.0000       4.237087       115.2970 
 648   0.0000       4.242446       115.4428 
 649   0.0000       4.248954       115.6199 
 650   0.0000       4.261620       115.9646 
 651   0.0000       4.266387       116.0943 
 652   0.0000       4.270495       116.2061 
 653   0.0000       4.273834       116.2969 
 654   0.0000       4.277754       116.4036 
 655   0.0000       4.284711       116.5929 
 656   0.0000       4.296343       116.9094 
 657   0.0000       4.299703       117.0009 
 658   0.0000       4.309617       117.2706 
 659   0.0000       4.311268       117.3156 
 660   0.0000       4.318803       117.5206 
 661   0.0000       4.326637       117.7338 
 662   0.0000       4.334807       117.9561 
 663   0.0000       4.339161       118.0746 
 664   0.0000       4.347659       118.3058 
 665   0.0000       4.352674       118.4423 
 666   0.0000       4.367191       118.8373 
 667   0.0000       4.376951       119.1029 
 668   0.0000       4.378367       119.1414 
 669   0.0000       4.394461       119.5794 
 670   0.0000       4.398670       119.6939 
 671   0.0000       4.399992       119.7299 
 672   0.0000       4.403327       119.8206 
 673   0.0000       4.412523       120.0709 
 674   0.0000       4.417765       120.2135 
 675   0.0000       4.425942       120.4360 
 676   0.0000       4.432650       120.6185 
 677   0.0000       4.446852       121.0050 
 678   0.0000       4.457336       121.2903 
 679   0.0000       4.457601       121.2975 
 680   0.0000       4.466952       121.5519 
 681   0.0000       4.473196       121.7219 
 682   0.0000       4.477316       121.8340 
 683   0.0000       4.480359       121.9168 
 684   0.0000       4.488129       122.1282 
 685   0.0000       4.489157       122.1562 
 686   0.0000       4.494264       122.2951 
 687   0.0000       4.504521       122.5742 
 688   0.0000       4.518180       122.9459 
 689   0.0000       4.521346       123.0321 
 690   0.0000       4.530167       123.2721 
 691   0.0000       4.535465       123.4163 
 692   0.0000       4.536566       123.4462 
 693   0.0000       4.548781       123.7786 
 694   0.0000       4.552367       123.8762 
 695   0.0000       4.565950       124.2458 
 696   0.0000       4.568558       124.3168 
 697   0.0000       4.570536       124.3706 
 698   0.0000       4.579336       124.6101 
 699   0.0000       4.589660       124.8910 
 700   0.0000       4.594350       125.0186 
 701   0.0000       4.604127       125.2847 
 702   0.0000       4.607462       125.3754 
 703   0.0000       4.615694       125.5994 
 704   0.0000       4.625738       125.8727 
 705   0.0000       4.627283       125.9148 
 706   0.0000       4.637876       126.2030 
 707   0.0000       4.644496       126.3831 
 708   0.0000       4.646367       126.4341 
 709   0.0000       4.657999       126.7506 
 710   0.0000       4.663199       126.8921 
 711   0.0000       4.672528       127.1460 
 712   0.0000       4.691774       127.6697 
 713   0.0000       4.695871       127.7811 
 714   0.0000       4.704458       128.0148 
 715   0.0000       4.707260       128.0910 
 716   0.0000       4.717093       128.3586 
 717   0.0000       4.723597       128.5356 
 718   0.0000       4.729556       128.6978 
 719   0.0000       4.730729       128.7297 
 720   0.0000       4.741454       129.0215 
 721   0.0000       4.755657       129.4080 
 722   0.0000       4.758782       129.4930 
 723   0.0000       4.777735       130.0088 
 724   0.0000       4.781026       130.0983 
 725   0.0000       4.790795       130.3642 
 726   0.0000       4.800482       130.6278 
 727   0.0000       4.808754       130.8528 
 728   0.0000       4.814110       130.9986 
 729   0.0000       4.818813       131.1266 
 730   0.0000       4.822332       131.2223 
 731   0.0000       4.832363       131.4953 
 732   0.0000       4.840943       131.7287 
 733   0.0000       4.853483       132.0700 
 734   0.0000       4.868148       132.4690 
 735   0.0000       4.873546       132.6159 
 736   0.0000       4.882871       132.8697 
 737   0.0000       4.893461       133.1578 
 738   0.0000       4.901373       133.3731 
 739   0.0000       4.906399       133.5099 
 740   0.0000       4.908682       133.5720 
 741   0.0000       4.919299       133.8609 
 742   0.0000       4.925691       134.0349 
 743   0.0000       4.934642       134.2784 
 744   0.0000       4.945499       134.5739 
 745   0.0000       4.949111       134.6722 
 746   0.0000       4.954700       134.8242 
 747   0.0000       4.971395       135.2785 
 748   0.0000       4.990826       135.8073 
 749   0.0000       5.010695       136.3479 
 750   0.0000       5.015013       136.4655 
 751   0.0000       5.022367       136.6655 
 752   0.0000       5.028218       136.8248 
 753   0.0000       5.048155       137.3673 
 754   0.0000       5.050069       137.4194 
 755   0.0000       5.054602       137.5427 
 756   0.0000       5.067813       137.9022 
 757   0.0000       5.085967       138.3962 
 758   0.0000       5.099763       138.7716 
 759   0.0000       5.103268       138.8670 
 760   0.0000       5.113413       139.1430 
 761   0.0000       5.128916       139.5649 
 762   0.0000       5.136165       139.7622 
 763   0.0000       5.152354       140.2027 
 764   0.0000       5.168516       140.6425 
 765   0.0000       5.175042       140.8201 
 766   0.0000       5.189039       141.2009 
 767   0.0000       5.197802       141.4394 
 768   0.0000       5.204170       141.6127 
 769   0.0000       5.213383       141.8634 
 770   0.0000       5.227154       142.2381 
 771   0.0000       5.238431       142.5450 
 772   0.0000       5.248263       142.8125 
 773   0.0000       5.255322       143.0046 
 774   0.0000       5.263249       143.2203 
 775   0.0000       5.269086       143.3791 
 776   0.0000       5.285004       143.8123 
 777   0.0000       5.289761       143.9417 
 778   0.0000       5.297607       144.1552 
 779   0.0000       5.319458       144.7498 
 780   0.0000       5.335329       145.1817 
 781   0.0000       5.342189       145.3683 
 782   0.0000       5.348464       145.5391 
 783   0.0000       5.363570       145.9502 
 784   0.0000       5.368011       146.0710 
 785   0.0000       5.371438       146.1643 
 786   0.0000       5.381676       146.4428 
 787   0.0000       5.394275       146.7857 
 788   0.0000       5.404769       147.0712 
 789   0.0000       5.409522       147.2006 
 790   0.0000       5.436089       147.9235 
 791   0.0000       5.456318       148.4740 
 792   0.0000       5.462347       148.6380 
 793   0.0000       5.467684       148.7832 
 794   0.0000       5.482719       149.1924 
 795   0.0000       5.491694       149.4366 
 796   0.0000       5.496285       149.5615 
 797   0.0000       5.502673       149.7354 
 798   0.0000       5.511033       149.9628 
 799   0.0000       5.524379       150.3260 
 800   0.0000       5.531973       150.5326 
 801   0.0000       5.544579       150.8757 
 802   0.0000       5.557257       151.2207 
 803   0.0000       5.564575       151.4198 
 804   0.0000       5.575102       151.7062 
 805   0.0000       5.586535       152.0173 
 806   0.0000       5.609036       152.6296 
 807   0.0000       5.627756       153.1390 
 808   0.0000       5.641958       153.5255 
 809   0.0000       5.647155       153.6669 
 810   0.0000       5.667629       154.2240 
 811   0.0000       5.687635       154.7684 
 812   0.0000       5.698063       155.0522 
 813   0.0000       5.700897       155.1293 
 814   0.0000       5.731739       155.9685 
 815   0.0000       5.745585       156.3453 
 816   0.0000       5.753453       156.5594 
 817   0.0000       5.765535       156.8882 
 818   0.0000       5.770906       157.0343 
 819   0.0000       5.774942       157.1442 
 820   0.0000       5.783594       157.3796 
 821   0.0000       5.789809       157.5487 
 822   0.0000       5.795689       157.7087 
 823   0.0000       5.810745       158.1184 
 824   0.0000       5.813938       158.2053 
 825   0.0000       5.820397       158.3811 
 826   0.0000       5.825418       158.5177 
 827   0.0000       5.832026       158.6975 
 828   0.0000       5.836200       158.8111 
 829   0.0000       5.850000       159.1866 
 830   0.0000       5.860226       159.4649 
[...]
INITIAL GUESS AND PNO GENERATION
--------------------------------

PNO truncation parameters                   .... 
    ScaleTCutPNO       =        1.000e-02
    PAOOverlapThresh   =        1.000e-08

    TCutPairs          =        1.000e-05
    TCutPNO            =        1.000e-07
    TCutPNOSingles     =        3.000e-09
    TCutMP2Pairs       =        1.000e-06
    TCutMKN            =        1.000e-03
    TCutDO             =        5.000e-03

Pair selection                          .... not used
Type of local MP2 treatment                 .... full local PMP2
Strategy for PNO selection                  .... occupation number selection
Pair density normalization                  .... MP2 norm
Spin component scaling                      .... not used

PASS-1: Formation of initial guess LMP2 amplitudes
Initial amplitudes guess done. Entering LMP2 iteration loop:
   Max. no of iterations          ...  50
   Energy convergence tolerance   ...    1.0e-07
   Residual convergence tolerance ...    5.0e-07
   Fock matrix cutoff             ...    1.0e-05 Eh
   DIIS convergence acceleration parameters:
        Max # vectors in DIIS     ... 7
        Start iteration of DIIS   ... 0
        Levelshift                ... 2.000e-01
        Damping factor 1          ... 5.000e-01
        Damping factor 2          ... 1.000e+00
   L-MP2 PNO cut-off              ...   1.0e-09
   L-MP2 PNO cut-off (core)       ...   1.0e-11
                           *** Turning on DIIS ***
LMP2-Iter=   0:  ELMP2= -4.255264663882  DE=   1.0e-01 RMAX=   1.5e-02
LMP2-Iter=   1:  ELMP2= -4.308488128505  DE=   5.3e-02 RMAX=   6.4e-03
LMP2-Iter=   2:  ELMP2= -4.319196417247  DE=   1.1e-02 RMAX=   2.4e-03
LMP2-Iter=   3:  ELMP2= -4.320610760824  DE=   1.4e-03 RMAX=   9.6e-04
LMP2-Iter=   4:  ELMP2= -4.320630038904  DE=   1.9e-05 RMAX=   2.9e-04
LMP2-Iter=   5:  ELMP2= -4.320592868023  DE=   3.7e-05 RMAX=   8.5e-05
LMP2-Iter=   6:  ELMP2= -4.320587465719  DE=   5.4e-06 RMAX=   2.2e-05
LMP2-Iter=   7:  ELMP2= -4.320588637528  DE=   1.2e-06 RMAX=   6.8e-06
LMP2-Iter=   8:  ELMP2= -4.320589274609  DE=   6.4e-07 RMAX=   1.8e-06
LMP2-Iter=   9:  ELMP2= -4.320589218250  DE=   5.6e-08 RMAX=   5.2e-07
LMP2-Iter=  10:  ELMP2= -4.320589212242  DE=   6.0e-09 RMAX=   1.3e-07
LMP2-Iter=  11:  ELMP2= -4.320589185372  DE=   2.7e-08 RMAX=   4.2e-08 => CONVERGED
PASS-2: Formation of Pair natural orbitals
   .... Finished loop over pairs

 PNO Occupation Number Statistics: 
  | Av. % of trace(Dij) retained        ...  97.791413130856
  | sigma^2 in % of trace(Dij) retained ...   1.11e+01
  | Av. % of trace(Di) retained         ...  99.999680653808
  | sigma^2 in % of trace(Di) retained  ...   9.23e-09
 Distributions of % trace(Dij) recovered:
  |       >= 99.9  ...   216 ( 12.0 % of all pairs)
  |   [70.0, 80.0) ...    12 (  0.7 % of all pairs)
  |   [80.0, 90.0) ...    62 (  3.4 % of all pairs)
  |   [90.0, 99.0) ...   982 ( 54.6 % of all pairs)
  |   [99.0, 99.9) ...   528 ( 29.3 % of all pairs)
 Distributions of % trace(Di) recovered :
  |       >= 99.9  ...    64 (100.0 % of all I-pairs )

Making pair pair interaction lists          ... done

                       ===========================
                       1250 OF 1800 PAIRS ARE KEPT
                       ===========================

Total time spent in the initial guess                 ...  3513.932 sec
L-MP2 correlation energy (all non-screened pairs)     ...      -4.320589185372 Eh
L-MP2 PNO error correction                            ...      -0.000174396503 Eh
                                                          --------------------
Initial total L-MP2 energy (non-screened pairs)       ...      -4.320763581875 Eh

Initial PNO correlation energy                        ...      -4.313219882397 Eh
sum of pair energies estimated for screened out pairs ...      -0.000112278207 Eh
sum of MP2 pair energies for pairs that were not kept ...      -0.002783968231 Eh
sum of PNO error estimates for the kept pairs         ...      -0.005267678076 Eh
                                                          --------------------
sum of all corrections                                         -0.008163924514
Initial total correlation energy                               -4.321383806911
Thresholds for map construction and integral transformation for fine MP2 and CCSD(T) calculation:
   TCutMKN   ...     1.0e-03
   TCutDO    ...     5.0e-03
   TCutPairs ...     1.0e-05
   TCutCMO   ...     1.0e-03
   TCutCPAO  ...     1.0e-03

Time for aux screen maps:            0.020
Time for maps after fine MP2:            0.147
-----------------------------
LOCAL RI TRANSFORMATION (IJV)
-----------------------------

Orbital window:      23 to 86
Basis functions:    970 (350 shells)
Aux. functions:    2463 (729 shells)
Use SHARK:           on

Processing maps (0.0 sec)
Average map sizes:
   Aux shells -> MOs(i)           57.0
   Aux shells -> MOs(j)           64.0
   MOs        -> AO shells       295.0

Calculating integrals (5.3 sec, 68.835 MB)
Sorting integrals (0.4 sec, 68.807 MB)
Total time for the integral transformation: 5.8 sec
--------------------------------
LOCAL RI TRANSFORMATION (VABPAO)
--------------------------------

Number of PAOs:     970
Basis functions:    970 (350 shells)
Aux. functions:    2463 (729 shells)
Use SHARK:           on

Processing maps (0.0 sec)
Average map sizes:
   Aux shells -> PAOs            956.7
   PAOs       -> AO shells       335.9

Calculating integrals (304.3 sec, 17220.918 MB)
Finished


-------------------------------------
Pair Pair Term precalculation with     
RI-(ij|mn) and (im|jn) transformation  
ON THE FLY                             
-------------------------------------

   IBatch   1 (of   4)              ... done (  314.851 sec)
   IBatch   2 (of   4)              ... done (  355.743 sec)
   IBatch   3 (of   4)              ... done (  390.835 sec)
   IBatch   4 (of   4)              ... done (  318.081 sec)
Total EXT                           ...        1379.512 sec

---------------------
RI-PNO TRANSFORMATION
---------------------

Total Number of PNOs                   ... 36076
Average number of PNOs per pair        ...    28
Maximal number of PNOs per pair        ...    88
   #pairs with  1 -  5 PNOs   :    0
   #pairs with  6 - 10 PNOs   :  342
   #pairs with 11 - 15 PNOs   :  160
   #pairs with 16 - 20 PNOs   :   89
   #pairs with 21 - 25 PNOs   :   68
   #pairs with 26 - 30 PNOs   :   92
   #pairs with 31 - 35 PNOs   :   58
   #pairs with 36 - 40 PNOs   :   45
   #pairs with 41 - 45 PNOs   :   43
   #pairs with 46 - 50 PNOs   :   93
   #pairs with 51 - 55 PNOs   :   91
   #pairs with 56 - 60 PNOs   :   46
   #pairs with 61 - 65 PNOs   :   62
   #pairs with 66 - 70 PNOs   :   37
   #pairs with 71 - 75 PNOs   :   18
   #pairs with 76 - 80 PNOs   :    4
   #pairs with 81 - 85 PNOs   :    1
   #pairs with 86 - 90 PNOs   :    1

Generation of (ij|ab)[P] integrals            ... on
Generation of (ia|bc)[P],(ja|bc)[P] integrals ... on
Storage of 3 and 4 external integrals         ... on
Generation of ALL (ka|bc)[P] integrals        ... on
Keep RI integrals in memory                   ... off

Ibatch:  1 (of  1)
Starting 2-4 index PNO integral generation ... done

Timings:
Total PNO integral transformation time     ...       1093.834 sec
Size of the 3-external file                ...       638 MB
Size of the 4-external file                ...      4622 MB
Size of the IKJL file                      ...         1 MB
Size of the all 3-external file            ...     19297 MB
Size of the 1-external file                ...        50 MB

Making pair/pair overlap matrices          ... done (  430.357 sec)
Size of the pair overlap file              ... 6420 MB
Redoing the guess amplitudes               ... done (    0.084 sec)

-------------------------
FINAL STARTUP INFORMATION
-------------------------

E(0)                                       ...  -1154.665321360
E(L-MP2)                                   ...     -4.320763582
E(L-MP2) including corrections             ...     -4.321383807
Initial E(tot)                             ...  -1158.986705167
<T|T>                                      ...      1.095652052
Number of pairs included                   ... 1250
Total number of pairs                      ... 2080

------------------------------------------------
                  RHF COUPLED CLUSTER ITERATIONS
------------------------------------------------

Number of PNO amplitudes to be optimized   ...      1570424
Number of non-PNO amplitudes               ...    974611250
Untruncated number of regular amplitudes   ...   1621753120

Iter       E(tot)           E(Corr)          Delta-E          Residual     Time
  0  -1158.818189086     -4.144703802      0.176059780      0.018253707 3324.13
                           *** Turning on DIIS ***
  1  -1158.923993760     -4.250508475     -0.105804674      0.010572314 3236.14
  2  -1159.026168642     -4.352683358     -0.102174883      0.006182303 3301.30
  3  -1159.048605100     -4.375119815     -0.022436457      0.003338438 3400.07
  4  -1159.055717166     -4.382231881     -0.007112066      0.001751768 3285.66
  5  -1159.058198219     -4.384712934     -0.002481053      0.000785727 3129.73
  6  -1159.058794625     -4.385309340     -0.000596406      0.000389948 3009.89
  7  -1159.058903633     -4.385418348     -0.000109008      0.000185535 3240.86
  8  -1159.058939444     -4.385454160     -0.000035812      0.000100123 3218.89
  9  -1159.058920605     -4.385435321      0.000018839      0.000051765 3284.48
 10  -1159.058920928     -4.385435643     -0.000000323      0.000026502 3240.14
 11  -1159.058918769     -4.385433485      0.000002158      0.000014035 3422.55
 12  -1159.058917080     -4.385431795      0.000001690      0.000008892 3298.54
               --- The Coupled-Cluster iterations have converged ---

----------------------
COUPLED CLUSTER ENERGY
----------------------

E(0)                                       ...  -1154.665321360
E(CORR)(strong-pairs)                      ...     -4.385431795
E(CORR)(weak-pairs)                        ...     -0.008163925
E(CORR)(corrected)                         ...     -4.393595720
E(TOT)                                     ...  -1159.058917080
Singles Norm <S|S>**1/2                    ...      0.156789727  
T1 diagnostic                              ...      0.013858385  

------------------
LARGEST AMPLITUDES
------------------
  53-> 87  53-> 87       0.058193
  54-> 87  54-> 87       0.052569
  68-> 87  68-> 87       0.051096
  54-> 87  53-> 87       0.048835
  71-> 87  71-> 87       0.046771
  72-> 87  72-> 87       0.045775
  67-> 87  67-> 87       0.041903
  72-> 87  71-> 87       0.040465
  68-> 87  67-> 87       0.040379
  74-> 90  74-> 90       0.038669
  43-> 87  43-> 87       0.038660
  55-> 91  55-> 91       0.038411
  57-> 87  57-> 87       0.036306
  58-> 87  58-> 87       0.034270
  42-> 87  42-> 87       0.033512
  43-> 87  -1-> -1       0.033102


-------------------------------------------
DLPNO BASED TRIPLES CORRECTION
-------------------------------------------

Singles multiplier          ...  1.000000
TCutTNO                     ... 1.000e-09
TCutMP2Pairs                ... 1.000e-06
TCutDOStrong                ... 1.000e-02
TCutMKNStrong               ... 1.000e-02
TCutDOWeak                  ... 2.000e-02
TCutMKNWeak                 ... 1.000e-01

Fragment selection                          .... not used
Fock matrix occ-virt block is zero --> Setting DT_in_Triples to false.
Number of Triples that are to be computed   ...     23656

 . . . . . . . . .
10% done  
20% done  
30% done               (   2688.806 sec)
 . . . . . . . . .
40% done  
50% done  
60% done  
70% done  
80% done  
90% done               (   4140.774 sec)
 . . . . . . . . .             (     36.421 sec)
Triples timings:
Total time for T0               ...  7680.918 sec
Total time for Iterative (T)    ...     0.000 sec
Total time of overall (T)       ...  7767.396 sec

Triples List generation         ...     0.000 sec
TNO generation                  ...   814.476 sec
Pair density generation         ...     0.049 sec
Look up tables                  ...     0.000 sec
Generating 3-index integrals    ...  4911.125 sec
  Make 4-ind.int. from 3-ind.int...   144.057 sec
  Projecting amplitudes (D + S) ...  1652.415 sec
  Downprojecting integrals      ...     0.013 sec
  Energy contr. (sum over a,b,c)...    10.909 sec
Fitting ET(->0)                 ...     0.000 sec

Everything after 3-index        ...  1954.876 sec

Timing details:
 TNO integrals                  ...  5049.814 sec
   Reading 3-index integrals    ...    53.394 sec
   Sorting integrals            ...   363.616 sec
       Sorting integrals 1      ...     0.009 sec
       Sorting integrals 2      ...   346.375 sec
       Sorting integrals 3      ...     3.306 sec
       Sorting integrals 4      ...     0.499 sec
       Sorting integrals 5      ...     2.637 sec
       Sorting integrals 6      ...    10.791 sec
   Calculating local VM**-1/2   ...     8.930 sec
   Orthogonal. integrals        ...    15.971 sec
   Multipl. 3-index integrals   ...  4607.904 sec
   All concerning IRIab (w/TNO) ...   101.710 sec

 Calculate W0/W1                ...   147.442 sec
 W 3-ext contribution           ...    86.776 sec
 W 3-int contribution           ...    48.448 sec
 Sorting W                      ...    10.927 sec

 V exchange contribution        ...     3.217 sec

 Timings for Triples without generation
     of 3-index integrals       ...  1954.858 sec
       0 weak pairs             ...  1450.038 sec
       1 weak pair              ...   504.821 sec
       2 weak pairs             ...     0.000 sec
       3 weak pairs             ...     0.000 sec
  Extra time for extrapolation  ...     0.000 sec

Number of Triples   (0, 1, 2, 3 weak pairs; overall):  14143    9513       0       0  ( 23656)
Number of Atoms     (0, 1, 2, 3 weak pairs; overall):   25.7    23.3     0.0     0.0  (    43)
Number of PAOs      (0, 1, 2, 3 weak pairs; overall):  610.5   562.5     0.0     0.0  (   970)
Number of AuxFcns   (0, 1, 2, 3 weak pairs; overall):  511.1   385.9     0.0     0.0  (  2463)
Number of TNOs      (0, 1, 2, 3 weak pairs         ):   80.5    49.1     0.0     0.0
Aver. Number of NTNO, Atoms, PAOs, AuxFcns / Triples:  23656    67.9    24.7   591.2   460.7

Triples Correction (T)                     ...     -0.193449736
Final correlation energy                   ...     -4.587045455
E(CCSD)                                    ...  -1159.058917080
E(CCSD(T))                                 ...  -1159.252366815



--------------------------------------------------------------------------------
                                    TIMINGS
--------------------------------------------------------------------------------


Total execution time                   ...    57959.110 sec

Localization of occupied MO's          ...       22.648 sec (  0.0%)
Fock Matrix Formation                  ...       89.692 sec (  0.2%)
Global overlap, Fock, MKN matrices     ...        3.050 sec (  0.0%)
Differential overlap integrals         ...       18.551 sec (  0.0%)
Organizing maps                        ...        0.421 sec (  0.0%)
RI 3-index integral generations        ...      848.169 sec (  1.5%)
RI-PNO integral transformation         ...     2988.560 sec (  5.2%)
Initial Guess                          ...     3788.498 sec (  6.5%)
DIIS Solver                            ...      298.911 sec (  0.5%)
State Vector Update                    ...        0.124 sec (  0.0%)
Sigma-vector construction              ...    42377.715 sec ( 73.1%)
  <0|H|D>                              ...        0.003 sec (  0.0% of sigma)
  <D|H|D>(0-ext)                       ...    11050.406 sec ( 26.1% of sigma)
  <D|H|D>(2-ext Fock)                  ...        3.424 sec (  0.0% of sigma)
  <D|H|D>(2-ext)                       ...     1663.025 sec (  3.9% of sigma)
  <D|H|D>(4-ext)                       ...       62.849 sec (  0.1% of sigma)
  <D|H|D>(4-ext-corr)                  ...      338.114 sec (  0.8% of sigma)
  CCSD doubles correction              ...      720.489 sec (  1.7% of sigma)
  <S|H|S>                              ...       78.093 sec (  0.2% of sigma)
  <S|H|D>(1-ext)                       ...       35.748 sec (  0.1% of sigma)
  <D|H|S>(1-ext)                       ...        3.196 sec (  0.0% of sigma)
  <S|H|D>(3-ext)                       ...       22.423 sec (  0.1% of sigma)
  CCSD singles correction              ...        0.003 sec (  0.0% of sigma)
  Fock-dressing                        ...    12347.830 sec ( 29.1% of sigma)
  Singles amplitudes                   ...      168.831 sec (  0.4% of sigma)
  (ik|jl)-dressing                     ...    13763.640 sec ( 32.5% of sigma)
  (ij|ab),(ia|jb)-dressing             ...     2100.289 sec (  5.0% of sigma)
  Pair energies                        ...        0.036 sec (  0.0% of sigma)
Total Time for computing (T)           ...     7767.537 sec ( 13.4% of ALL)


Maximum memory used throughout the entire MDCI-calculation: 10188.6 MB

-------------------------   --------------------
FINAL SINGLE POINT ENERGY     -1159.252366815209
-------------------------   --------------------


                            ***************************************
                            *     ORCA property calculations      *
                            ***************************************


  WARNING: The energy has been calculated at the MDCI level but the densities
           used in the property calculations are still SCF densities
           MDCI response densities have not been calculated 
           use %mdci Density linearized end
           or  %mdci Density unrelaxed end
           or  %mdci Density orbopt end

                                    ---------------------
                                    Active property flags
                                    ---------------------
   (+) Dipole Moment


------------------------------------------------------------------------------
                       ORCA ELECTRIC PROPERTIES CALCULATION
------------------------------------------------------------------------------

Dipole Moment Calculation                       ... on
Quadrupole Moment Calculation                   ... off
Polarizability Calculation                      ... off
GBWName                                         ... input.gbw
Electron density                                ... input.scfp
The origin for moment calculation is the CENTER OF MASS  = (20.331314, 17.631358 17.212905)

-------------
DIPOLE MOMENT
-------------
                                X             Y             Z
Electronic contribution:     21.95755     -10.37092       0.33461
Nuclear contribution   :    -31.87353      13.99733       5.19914
                        -----------------------------------------
Total Dipole Moment    :     -9.91598       3.62642       5.53376
                        -----------------------------------------
Magnitude (a.u.)       :     11.92057
Magnitude (Debye)      :     30.29969



--------------------
Rotational spectrum 
--------------------
 
Rotational constants in cm-1:     0.015831     0.005012     0.004787 
Rotational constants in MHz :   474.610894   150.242702   143.525207 

 Dipole components along the rotational axes: 
x,y,z [a.u.] :    10.846632    -4.392117     2.271541 
x,y,z [Debye]:    27.569949   -11.163875     5.773798 

 

Timings for individual modules:

Sum of individual times         ...    58806.444 sec (= 980.107 min)
GTO integral calculation        ...      221.415 sec (=   3.690 min)   0.4 %
SCF iterations                  ...      623.227 sec (=  10.387 min)   1.1 %
MDCI module                     ...    57961.803 sec (= 966.030 min)  98.6 %
                             ****ORCA TERMINATED NORMALLY****
TOTAL RUN TIME: 0 days 16 hours 20 minutes 12 seconds 627 msec
