Loading orca/5.0.3
  Loading requirement: gcc-runtime/11.3.1-gcc-11.3.1-jw6fhud
    numactl/2.0.14-gcc-11.3.1-tqvsbcd openssh/8.7p1-gcc-11.3.1-ddo4kmk
    libiconv/1.17-gcc-11.3.1-h3jdn2x xz/5.4.1-gcc-11.3.1-y32p7p3
    zlib/1.2.13-gcc-11.3.1-dwcx77k libxml2/2.10.3-gcc-11.3.1-m4mk5ab
    cuda/11.8.0-gcc-11.3.1-i5witig libpciaccess/0.17-gcc-11.3.1-qksiqer
    ncurses/6.4-gcc-11.3.1-afnu276 hwloc/2.9.1-gcc-11.3.1-qedjm66
    openssl/3.1.2-gcc-11.3.1-mgoa6lt libevent/2.1.12-gcc-11.3.1-bpr3m74
    pmix/4.2.2-gcc-11.3.1-du4y5e7 slurm/22.05.6-gcc-11.3.1-atym2np
    libnl/3.3.0-gcc-11.3.1-gh3muw7 rdma-core/41.0-gcc-11.3.1-isp54jw
    ucx/1.14.1-gcc-11.3.1-o3wj4kz openmpi/4.1.2-gcc-11.3.1-fs7u3kb

                                 *****************
                                 * O   R   C   A *
                                 *****************

                                            #,                                       
                                            ###                                      
                                            ####                                     
                                            #####                                    
                                            ######                                   
                                           ########,                                 
                                     ,,################,,,,,                         
                               ,,#################################,,                 
                          ,,##########################################,,             
                       ,#########################################, ''#####,          
                    ,#############################################,,   '####,        
                  ,##################################################,,,,####,       
                ,###########''''           ''''###############################       
              ,#####''   ,,,,##########,,,,          '''####'''          '####       
            ,##' ,,,,###########################,,,                        '##       
           ' ,,###''''                  '''############,,,                           
         ,,##''                                '''############,,,,        ,,,,,,###''
      ,#''                                            '''#######################'''  
     '                                                          ''''####''''         
             ,#######,   #######,   ,#######,      ##                                
            ,#'     '#,  ##    ##  ,#'     '#,    #''#        ######   ,####,        
            ##       ##  ##   ,#'  ##            #'  '#       #        #'  '#        
            ##       ##  #######   ##           ,######,      #####,   #    #        
            '#,     ,#'  ##    ##  '#,     ,#' ,#      #,         ##   #,  ,#        
             '#######'   ##     ##  '#######'  #'      '#     #####' # '####'        



                  #######################################################
                  #                        -***-                        #
                  #          Department of theory and spectroscopy      #
                  #    Directorship and core code : Frank Neese         #
                  #        Max Planck Institute fuer Kohlenforschung    #
                  #                Kaiser Wilhelm Platz 1               #
                  #                 D-45470 Muelheim/Ruhr               #
                  #                      Germany                        #
                  #                                                     #
                  #                  All rights reserved                #
                  #                        -***-                        #
                  #######################################################


                         Program Version 5.0.3 -  RELEASE  -


 With contributions from (in alphabetic order):
   Daniel Aravena         : Magnetic Suceptibility
   Michael Atanasov       : Ab Initio Ligand Field Theory (pilot matlab implementation)
   Alexander A. Auer      : GIAO ZORA, VPT2 properties, NMR spectrum
   Ute Becker             : Parallelization
   Giovanni Bistoni       : ED, misc. LED, open-shell LED, HFLD
   Martin Brehm           : Molecular dynamics
   Dmytro Bykov           : SCF Hessian
   Vijay G. Chilkuri      : MRCI spin determinant printing, contributions to CSF-ICE
   Dipayan Datta          : RHF DLPNO-CCSD density
   Achintya Kumar Dutta   : EOM-CC, STEOM-CC
   Dmitry Ganyushin       : Spin-Orbit,Spin-Spin,Magnetic field MRCI
   Miquel Garcia          : C-PCM and meta-GGA Hessian, CC/C-PCM, Gaussian charge scheme
   Yang Guo               : DLPNO-NEVPT2, F12-NEVPT2, CIM, IAO-localization
   Andreas Hansen         : Spin unrestricted coupled pair/coupled cluster methods
   Benjamin Helmich-Paris : MC-RPA, TRAH-SCF, COSX integrals
   Lee Huntington         : MR-EOM, pCC
   Robert Izsak           : Overlap fitted RIJCOSX, COSX-SCS-MP3, EOM
   Marcus Kettner         : VPT2
   Christian Kollmar      : KDIIS, OOCD, Brueckner-CCSD(T), CCSD density, CASPT2, CASPT2-K
   Simone Kossmann        : Meta GGA functionals, TD-DFT gradient, OOMP2, MP2 Hessian
   Martin Krupicka        : Initial AUTO-CI
   Lucas Lang             : DCDCAS
   Marvin Lechner         : AUTO-CI (C++ implementation), FIC-MRCC
   Dagmar Lenk            : GEPOL surface, SMD
   Dimitrios Liakos       : Extrapolation schemes; Compound Job, initial MDCI parallelization
   Dimitrios Manganas     : Further ROCIS development; embedding schemes
   Dimitrios Pantazis     : SARC Basis sets
   Anastasios Papadopoulos: AUTO-CI, single reference methods and gradients
   Taras Petrenko         : DFT Hessian,TD-DFT gradient, ASA, ECA, R-Raman, ABS, FL, XAS/XES, NRVS
   Peter Pinski           : DLPNO-MP2, DLPNO-MP2 Gradient
   Christoph Reimann      : Effective Core Potentials
   Marius Retegan         : Local ZFS, SOC
   Christoph Riplinger    : Optimizer, TS searches, QM/MM, DLPNO-CCSD(T), (RO)-DLPNO pert. Triples
   Tobias Risthaus        : Range-separated hybrids, TD-DFT gradient, RPA, STAB
   Michael Roemelt        : Original ROCIS implementation
   Masaaki Saitow         : Open-shell DLPNO-CCSD energy and density
   Barbara Sandhoefer     : DKH picture change effects
   Avijit Sen             : IP-ROCIS
   Kantharuban Sivalingam : CASSCF convergence, NEVPT2, FIC-MRCI
   Bernardo de Souza      : ESD, SOC TD-DFT
   Georgi Stoychev        : AutoAux, RI-MP2 NMR, DLPNO-MP2 response
   Willem Van den Heuvel  : Paramagnetic NMR
   Boris Wezisla          : Elementary symmetry handling
   Frank Wennmohs         : Technical directorship


 We gratefully acknowledge several colleagues who have allowed us to
 interface, adapt or use parts of their codes:
   Stefan Grimme, W. Hujo, H. Kruse, P. Pracht,  : VdW corrections, initial TS optimization,
                  C. Bannwarth, S. Ehlert          DFT functionals, gCP, sTDA/sTD-DF
   Ed Valeev, F. Pavosevic, A. Kumar             : LibInt (2-el integral package), F12 methods
   Garnet Chan, S. Sharma, J. Yang, R. Olivares  : DMRG
   Ulf Ekstrom                                   : XCFun DFT Library
   Mihaly Kallay                                 : mrcc  (arbitrary order and MRCC methods)
   Jiri Pittner, Ondrej Demel                    : Mk-CCSD
   Frank Weinhold                                : gennbo (NPA and NBO analysis)
   Christopher J. Cramer and Donald G. Truhlar   : smd solvation model
   Lars Goerigk                                  : TD-DFT with DH, B97 family of functionals
   V. Asgeirsson, H. Jonsson                     : NEB implementation
   FAccTs GmbH                                   : IRC, NEB, NEB-TS, DLPNO-Multilevel, CI-OPT
                                                   MM, QMMM, 2- and 3-layer-ONIOM, Crystal-QMMM,
                                                   LR-CPCM, SF, NACMEs, symmetry and pop. for TD-DFT,
                                                   nearIR, NL-DFT gradient (VV10), updates on ESD,
                                                   ML-optimized integration grids
   S Lehtola, MJT Oliveira, MAL Marques          : LibXC Library
   Liviu Ungur et al                             : ANISO software


 Your calculation uses the libint2 library for the computation of 2-el integrals
 For citations please refer to: http://libint.valeyev.net

 Your ORCA version has been built with support for libXC version: 5.1.0
 For citations please refer to: https://tddft.org/programs/libxc/

 This ORCA versions uses:
   CBLAS   interface :  Fast vector & matrix operations
   LAPACKE interface :  Fast linear algebra routines
   SCALAPACK package :  Parallel linear algebra routines
   Shared memory     :  Shared parallel matrices
   BLAS/LAPACK       :  OpenBLAS 0.3.15  USE64BITINT DYNAMIC_ARCH NO_AFFINITY Prescott SINGLE_THREADED
        Core in use  :  Prescott
   Copyright (c) 2011-2014, The OpenBLAS Project


================================================================================

----- Orbital basis set information -----
Your calculation utilizes the basis: cc-pVQZ 
       H, B-Ne : Obtained from the ccRepo (grant-hill.group.shef.ac.uk/ccrepo) Feb. 2017
                 T. H. Dunning, Jr., J. Chem. Phys. 90, 1007 (1989)
            He : Obtained from the ccRepo (grant-hill.group.shef.ac.uk/ccrepo) Feb. 2017
                 D. E. Woon, T. H. Dunning, Jr., J. Chem. Phys. 100, 2975 (1994)
  Li-Be, Na-Mg : Obtained from the ccRepo (grant-hill.group.shef.ac.uk/ccrepo) Feb. 2017
                 B. P. Prascher, D. E. Woon, K. A. Peterson, T. H. Dunning, Jr., A. K. Wilson, Theor. Chem. Acc. 128, 69 (2011)
         Al-Ar : Obtained from the ccRepo (grant-hill.group.shef.ac.uk/ccrepo) Feb. 2017
                 D. E. Woon, T. H. Dunning, Jr., J. Chem. Phys. 98, 1358 (1993)
            Ca : Obtained from the Peterson Research Group Website (tyr0.chem.wsu.edu/~kipeters) Feb. 2017
                 J. Koput, K. A. Peterson, J. Phys. Chem. 106, 9595 (2002)
         Sc-Zn : Obtained from the ccRepo (grant-hill.group.shef.ac.uk/ccrepo) Feb. 2017
                 N. B. Balabanov, K. A. Peterson, J. Chem. Phys. 123, 064107 (2005)
                 N. B. Balabanov, K. A. Peterson, J. Chem. Phys. 125, 074110 (2006)
         Ga-Kr : Obtained from the ccRepo (grant-hill.group.shef.ac.uk/ccrepo) Feb. 2017
                 A. K. Wilson, D. E. Woon, K. A. Peterson, T. H. Dunning, Jr., J. Chem. Phys. 110, 7667 (1999)

----- AuxC basis set information -----
Your calculation utilizes the auxiliary basis: cc-pVQZ/C 
  Obtained from the EMSL Basis Set Exchange (bse.pnl.gov) Feb. 2017
  H-He, B-F, Al-Ar, Ga-Kr : F. Weigend, A. Kohn, C. Hattig, J. Chem. Phys. 116, 3175 (2002)
             Li-Be, Na-Mg : C. Haettig, Phys. Chem. Chem. Phys. 7, 59 (2005)
                       Ne : C. Haettig, Phys. Chem. Chem. Phys. 7, 59 (2005)
                            F. Weigend, A. Kohn, C. Hattig, J. Chem. Phys. 116, 3175 (2002)
                    Sc-Zn : D. H. Bross, J. G. Hill, H. J. Werner, K. A. Peterson, J. Chem. Phys. 139, 094302 (2013)

================================================================================
                                        WARNINGS
                       Please study these warnings very carefully!
================================================================================


WARNING: Post HF methods need fully converged wavefunctions
  ===> : Setting SCFConvForced true
         You can overwrite this default with %scf ConvForced false 


WARNING: MDCI localization with Augmented Hessian Foster-Boys
  ===> : Switching off randomization!

INFO   : the flag for use of the SHARK integral package has been found!

================================================================================
                                       INPUT FILE
================================================================================
NAME = input
|  1> ! DLPNO-CCSD(T) cc-pVQZ cc-pVQZ/C TIGHTPNO TIGHTSCF
|  2> %maxcore 10000
|  3> %pal
|  4> nprocs 32
|  5> end
|  6> *xyz -1 1
|  7> H 4.322954811427 12.903581979119 8.265088616524
|  8> C 4.605095000000 11.906886000000 8.570693000000
|  9> H 5.190507000000 11.466800000000 7.755212000000
| 10> H 3.710039000000 11.287900000000 8.665492000000
| 11> C 5.380588000000 11.699238000000 9.854755000000
| 12> H 5.516676000000 10.620831000000 9.971529000000
| 13> H 4.775081000000 12.028266000000 10.704389000000
| 14> C 6.750721000000 12.355805000000 9.863295000000
| 15> H 6.712143000000 13.353176000000 10.302544000000
| 16> H 7.087132000000 12.482854000000 8.837069000000
| 17> N 7.801394000000 11.584780000000 10.503722000000
| 18> H 8.520358000000 11.224111000000 9.867439000000
| 19> C 8.105987000000 11.636393000000 11.782797000000
| 20> N 7.220458000000 12.116611000000 12.672554000000
| 21> H 6.242412000000 11.998926000000 12.485304000000
| 22> H 7.523348000000 12.086887000000 13.639547000000
| 23> N 9.292053000000 11.256909000000 12.216979000000
| 24> H 9.479849000000 11.335825000000 13.210993000000
| 25> H 9.990700000000 10.886266000000 11.583156000000
| 26> C 12.858063000000 10.838447000000 9.176954000000
| 27> H 13.539520000000 10.651479000000 9.991436000000
| 28> H 13.225067000000 11.327244000000 8.287276000000
| 29> C 11.579931000000 10.502996000000 9.255571000000
| 30> C 10.619130000000 10.894485000000 8.164412000000
| 31> O 11.075613000000 11.043303000000 7.004633000000
| 32> O 9.424143000000 11.083035000000 8.458443000000
| 33> O 11.032207000000 9.919997000000 10.363050000000
| 34> C 11.233455000000 8.483825000000 10.574462000000
| 35> H 10.764467000000 8.310230000000 11.540306000000
| 36> C 12.702308000000 8.239668000000 10.641575000000
| 37> H 13.232769000000 8.657130000000 11.485180000000
| 38> C 13.381706000000 7.692492000000 9.637747000000
| 39> C 12.654999000000 7.156452000000 8.483143000000
| 40> H 13.249903000000 6.754456000000 7.673199000000
| 41> C 11.325520000000 7.157111000000 8.425029000000
| 42> H 10.814299000000 6.743059000000 7.564186000000
| 43> C 10.455286000000 7.670831000000 9.530873000000
| 44> H 9.714263000000 8.357990000000 9.110074000000
| 45> O 9.794085000000 6.569231000000 10.104579000000
| 46> H 9.037608000000 6.890131000000 10.693839000000
| 47> C 14.898536000000 7.779900000000 9.575956000000
| 48> O 15.512356000000 8.187599000000 10.600813000000
| 49> O 15.431911000000 7.503926000000 8.492276000000
| 50> *
| 51> 
| 52>                          ****END OF INPUT****
================================================================================

                       ****************************
                       * Single Point Calculation *
                       ****************************

---------------------------------
CARTESIAN COORDINATES (ANGSTROEM)
---------------------------------
  H      4.322955   12.903582    8.265089
  C      4.605095   11.906886    8.570693
  H      5.190507   11.466800    7.755212
  H      3.710039   11.287900    8.665492
  C      5.380588   11.699238    9.854755
  H      5.516676   10.620831    9.971529
  H      4.775081   12.028266   10.704389
  C      6.750721   12.355805    9.863295
  H      6.712143   13.353176   10.302544
  H      7.087132   12.482854    8.837069
  N      7.801394   11.584780   10.503722
  H      8.520358   11.224111    9.867439
  C      8.105987   11.636393   11.782797
  N      7.220458   12.116611   12.672554
  H      6.242412   11.998926   12.485304
  H      7.523348   12.086887   13.639547
  N      9.292053   11.256909   12.216979
  H      9.479849   11.335825   13.210993
  H      9.990700   10.886266   11.583156
  C     12.858063   10.838447    9.176954
  H     13.539520   10.651479    9.991436
  H     13.225067   11.327244    8.287276
  C     11.579931   10.502996    9.255571
  C     10.619130   10.894485    8.164412
  O     11.075613   11.043303    7.004633
  O      9.424143   11.083035    8.458443
  O     11.032207    9.919997   10.363050
  C     11.233455    8.483825   10.574462
  H     10.764467    8.310230   11.540306
  C     12.702308    8.239668   10.641575
  H     13.232769    8.657130   11.485180
  C     13.381706    7.692492    9.637747
  C     12.654999    7.156452    8.483143
  H     13.249903    6.754456    7.673199
  C     11.325520    7.157111    8.425029
  H     10.814299    6.743059    7.564186
  C     10.455286    7.670831    9.530873
  H      9.714263    8.357990    9.110074
  O      9.794085    6.569231   10.104579
  H      9.037608    6.890131   10.693839
  C     14.898536    7.779900    9.575956
  O     15.512356    8.187599   10.600813
  O     15.431911    7.503926    8.492276

----------------------------
CARTESIAN COORDINATES (A.U.)
----------------------------
  NO LB      ZA    FRAG     MASS         X           Y           Z
   0 H     1.0000    0     1.008    8.169201   24.384236   15.618754
   1 C     6.0000    0    12.011    8.702368   22.500754   16.196263
   2 H     1.0000    0     1.008    9.808637   21.669112   14.655227
   3 H     1.0000    0     1.008    7.010958   21.331040   16.375407
   4 C     6.0000    0    12.011   10.167838   22.108356   18.622788
   5 H     1.0000    0     1.008   10.425007   20.070462   18.843459
   6 H     1.0000    0     1.008    9.023595   22.730129   20.228364
   7 C     6.0000    0    12.011   12.757014   23.349088   18.638926
   8 H     1.0000    0     1.008   12.684112   25.233846   19.468987
   9 H     1.0000    0     1.008   13.392739   23.589175   16.699640
  10 N     7.0000    0    14.007   14.742498   21.892062   19.849158
  11 H     1.0000    0     1.008   16.101143   21.210496   18.646757
  12 C     6.0000    0    12.011   15.318095   21.989596   22.266259
  13 N     7.0000    0    14.007   13.644688   22.897076   23.947656
  14 H     1.0000    0     1.008   11.796449   22.674684   23.593805
  15 H     1.0000    0     1.008   14.217067   22.840906   25.775008
  16 N     7.0000    0    14.007   17.559435   21.272475   23.086744
  17 H     1.0000    0     1.008   17.914318   21.421605   24.965159
  18 H     1.0000    0     1.008   18.879687   20.572061   21.888993
  19 C     6.0000    0    12.011   24.298218   20.481697   17.341930
  20 H     1.0000    0     1.008   25.585985   20.128378   18.881078
  21 H     1.0000    0     1.008   24.991755   21.405389   15.660682
  22 C     6.0000    0    12.011   21.882898   19.847786   17.490494
  23 C     6.0000    0    12.011   20.067247   20.587593   15.428503
  24 O     8.0000    0    15.999   20.929875   20.868818   13.236838
  25 O     8.0000    0    15.999   17.809049   20.943901   15.984141
  26 O     8.0000    0    15.999   20.847850   18.746078   19.583326
  27 C     6.0000    0    12.011   21.228153   16.032106   19.982837
  28 H     1.0000    0     1.008   20.341895   15.704059   21.808018
  29 C     6.0000    0    12.011   24.003883   15.570716   20.109662
  30 H     1.0000    0     1.008   25.006309   16.359605   21.703845
  31 C     6.0000    0    12.011   25.287760   14.536703   18.212702
  32 C     6.0000    0    12.011   23.914482   13.523734   16.030817
  33 H     1.0000    0     1.008   25.038688   12.764072   14.500245
  34 C     6.0000    0    12.011   21.402131   13.524980   15.920997
  35 H     1.0000    0     1.008   20.436063   12.742535   14.294240
  36 C     6.0000    0    12.011   19.757627   14.495770   18.010740
  37 H     1.0000    0     1.008   18.357297   15.794312   17.215545
  38 O     8.0000    0    15.999   18.508138   12.414048   19.094887
  39 H     1.0000    0     1.008   17.078604   13.020461   20.208427
  40 C     6.0000    0    12.011   28.154153   14.701880   18.095934
  41 O     8.0000    0    15.999   29.314105   15.472320   20.032633
  42 O     8.0000    0    15.999   29.162086   14.180365   16.048076

--------------------------------
INTERNAL COORDINATES (ANGSTROEM)
--------------------------------
 H      0   0   0     0.000000000000     0.00000000     0.00000000
 C      1   0   0     1.080000000000     0.00000000     0.00000000
 H      2   1   0     1.096080361334   107.42998296     0.00000000
 H      2   1   3     1.092362468109   109.47792198   245.39155834
 C      2   1   3     1.514371917594   120.01674062   123.18190752
 H      5   2   1     1.093214420171   106.83281634   177.95030346
 H      5   2   1     1.093972616563   109.50303309    63.08971925
 C      5   2   1     1.519347753076   114.03589174   297.51937404
 H      8   5   2     1.090493859554   111.44431169    93.31151372
 H      8   5   2     1.087406829295   108.91540148   336.09267348
 N      8   5   2     1.452081280743   115.18393253   218.81382366
 H     11   8   5     1.025596127599   114.85593484   111.26858626
 C     11   8   5     1.315854723381   125.12596254   271.05886390
 N     13  11   8     1.344038115685   120.33147419    19.59868001
 H     14  13  11     1.002739397770   118.49469105    30.61475794
 H     14  13  11     1.013756050697   115.09599921   177.74149865
 N     13  11   8     1.318815632200   121.12530192   201.52844306
 H     17  13  11     1.014671821264   117.81315544   178.75787248
 H     17  13  11     1.013516383384   121.28441586   357.93166695
 C     19  17  13     3.743509756276   159.16916884    89.16593703
 H     20  19  17     1.078295694231    90.04424271    94.18627496
 H     20  19  17     1.079417151480   141.66738212   312.47424601
 C     20  19  17     1.323755799048    39.24088540   239.60176822
 C     23  20  19     1.505666019409   120.47763096   132.24773827
 O     24  23  20     1.255233386767   117.92761379    27.79586710
 O     24  23  20     1.244989663262   118.73233838   209.37012803
 O     23  20  19     1.366162197405   122.91455860   319.17519151
 C     27  23  20     1.465532601081   118.69056651   280.68657195
 H     28  27  23     1.087630268292   103.02058414   176.11343258
 C     28  27  23     1.490518678523   107.59850735    58.74543592
 H     30  28  27     1.080431760913   117.10993649    66.64443241
 C     30  28  27     1.329907467068   122.46914549   255.44147092
 C     32  30  28     1.465794099546   119.45586523   352.37669052
 H     33  32  30     1.082368161195   116.92141983   177.75490249
 C     33  32  30     1.330748692548   121.97314987   357.62885162
 H     35  33  32     1.083437418679   120.39174900   180.75999307
 C     35  33  32     1.498034180348   123.25016997   358.63147136
 H     37  35  33     1.094702871199   108.94948396   130.65538402
 O     37  35  33     1.407070679403   107.78738738   249.12296294
 H     39  37  35     1.011168437566   109.91948047   193.76064847
 C     32  30  28     1.520602359279   121.10550382   164.01168897
 O     41  32  30     1.262269914658   118.07647072    11.43788419
 O     41  32  30     1.238956367957   116.88327922   194.84805035

---------------------------
INTERNAL COORDINATES (A.U.)
---------------------------
 H      0   0   0     0.000000000000     0.00000000     0.00000000
 C      1   0   0     2.040904224635     0.00000000     0.00000000
 H      2   1   0     2.071291703690   107.42998296     0.00000000
 H      2   1   3     2.064265903700   109.47792198   245.39155834
 C      2   1   3     2.861748189154   120.01674062   123.18190752
 H      5   2   1     2.065875859776   106.83281634   177.95030346
 H      5   2   1     2.067308643313   109.50303309    63.08971925
 C      5   2   1     2.871151155503   114.03589174   297.51937404
 H      8   5   2     2.060734745281   111.44431169    93.31151372
 H      8   5   2     2.054901103524   108.91540148   336.09267348
 N      8   5   2     2.744035944797   115.18393253   218.81382366
 H     11   8   5     1.938095805172   114.85593484   111.26858626
 C     11   8   5     2.486605059216   125.12596254   271.05886390
 N     13  11   8     2.539863952196   120.33147419    19.59868001
 H     14  13  11     1.894902845479   118.49469105    30.61475794
 H     14  13  11     1.915721302423   115.09599921   177.74149865
 N     13  11   8     2.492200365993   121.12530192   201.52844306
 H     17  13  11     1.917451857997   117.81315544   178.75787248
 H     17  13  11     1.915268396837   121.28441586   357.93166695
 C     19  17  13     7.074208219024   159.16916884    89.16593703
 H     20  19  17     2.037683553483    90.04424271    94.18627496
 H     20  19  17     2.039802800554   141.66738212   312.47424601
 C     20  19  17     2.501535928391    39.24088540   239.60176822
 C     23  20  19     2.845296425834   120.47763096   132.24773827
 O     24  23  20     2.372047335144   117.92761379    27.79586710
 O     24  23  20     2.352689503129   118.73233838   209.37012803
 O     23  20  19     2.581672407611   122.91455860   319.17519151
 C     27  23  20     2.769455256377   118.69056651   280.68657195
 H     28  27  23     2.055323342035   103.02058414   176.11343258
 C     28  27  23     2.816672099903   107.59850735    58.74543592
 H     30  28  27     2.041720134516   117.10993649    66.64443241
 C     30  28  27     2.513160896216   122.46914549   255.44147092
 C     32  30  28     2.769949416860   119.45586523   352.37669052
 H     33  32  30     2.045379400734   116.92141983   177.75490249
 C     33  32  30     2.514750581989   121.97314987   357.62885162
 H     35  33  32     2.047400004546   120.39174900   180.75999307
 C     35  33  32     2.830874340112   123.25016997   358.63147136
 H     37  35  33     2.068688624583   108.94948396   130.65538402
 O     37  35  33     2.658978235143   107.78738738   249.12296294
 H     39  37  35     1.910831422264   109.91948047   193.76064847
 C     32  30  28     2.873522017632   121.10550382   164.01168897
 O     41  32  30     2.385344445791   118.07647072    11.43788419
 O     41  32  30     2.341288227316   116.88327922   194.84805035

---------------------
BASIS SET INFORMATION
---------------------
There are 4 groups of distinct atoms

 Group   1 Type H   : 6s3p2d1f contracted to 4s3p2d1f pattern {3111/111/11/1}
 Group   2 Type C   : 21s6p3d2f1g contracted to 5s4p3d2f1g pattern {99111/3111/111/11/1}
 Group   3 Type N   : 21s6p3d2f1g contracted to 5s4p3d2f1g pattern {99111/3111/111/11/1}
 Group   4 Type O   : 21s6p3d2f1g contracted to 5s4p3d2f1g pattern {99111/3111/111/11/1}

Atom   0H    basis set group =>   1
Atom   1C    basis set group =>   2
Atom   2H    basis set group =>   1
Atom   3H    basis set group =>   1
Atom   4C    basis set group =>   2
Atom   5H    basis set group =>   1
Atom   6H    basis set group =>   1
Atom   7C    basis set group =>   2
Atom   8H    basis set group =>   1
Atom   9H    basis set group =>   1
Atom  10N    basis set group =>   3
Atom  11H    basis set group =>   1
Atom  12C    basis set group =>   2
Atom  13N    basis set group =>   3
Atom  14H    basis set group =>   1
Atom  15H    basis set group =>   1
Atom  16N    basis set group =>   3
Atom  17H    basis set group =>   1
Atom  18H    basis set group =>   1
Atom  19C    basis set group =>   2
Atom  20H    basis set group =>   1
Atom  21H    basis set group =>   1
Atom  22C    basis set group =>   2
Atom  23C    basis set group =>   2
Atom  24O    basis set group =>   4
Atom  25O    basis set group =>   4
Atom  26O    basis set group =>   4
Atom  27C    basis set group =>   2
Atom  28H    basis set group =>   1
Atom  29C    basis set group =>   2
Atom  30H    basis set group =>   1
Atom  31C    basis set group =>   2
Atom  32C    basis set group =>   2
Atom  33H    basis set group =>   1
Atom  34C    basis set group =>   2
Atom  35H    basis set group =>   1
Atom  36C    basis set group =>   2
Atom  37H    basis set group =>   1
Atom  38O    basis set group =>   4
Atom  39H    basis set group =>   1
Atom  40C    basis set group =>   2
Atom  41O    basis set group =>   4
Atom  42O    basis set group =>   4
---------------------------------
AUXILIARY/C BASIS SET INFORMATION
---------------------------------
There are 4 groups of distinct atoms

 Group   1 Type H   : 5s4p3d2f1g contracted to 5s4p3d2f1g pattern {11111/1111/111/11/1}
 Group   2 Type C   : 8s7p6d5f3g1h contracted to 8s7p6d5f3g1h pattern {11111111/1111111/111111/11111/111/1}
 Group   3 Type N   : 8s7p6d5f3g1h contracted to 8s7p6d5f3g1h pattern {11111111/1111111/111111/11111/111/1}
 Group   4 Type O   : 8s7p6d5f3g1h contracted to 8s7p6d5f3g1h pattern {11111111/1111111/111111/11111/111/1}

Atom   0H    basis set group =>   1
Atom   1C    basis set group =>   2
Atom   2H    basis set group =>   1
Atom   3H    basis set group =>   1
Atom   4C    basis set group =>   2
Atom   5H    basis set group =>   1
Atom   6H    basis set group =>   1
Atom   7C    basis set group =>   2
Atom   8H    basis set group =>   1
Atom   9H    basis set group =>   1
Atom  10N    basis set group =>   3
Atom  11H    basis set group =>   1
Atom  12C    basis set group =>   2
Atom  13N    basis set group =>   3
Atom  14H    basis set group =>   1
Atom  15H    basis set group =>   1
Atom  16N    basis set group =>   3
Atom  17H    basis set group =>   1
Atom  18H    basis set group =>   1
Atom  19C    basis set group =>   2
Atom  20H    basis set group =>   1
Atom  21H    basis set group =>   1
Atom  22C    basis set group =>   2
Atom  23C    basis set group =>   2
Atom  24O    basis set group =>   4
Atom  25O    basis set group =>   4
Atom  26O    basis set group =>   4
Atom  27C    basis set group =>   2
Atom  28H    basis set group =>   1
Atom  29C    basis set group =>   2
Atom  30H    basis set group =>   1
Atom  31C    basis set group =>   2
Atom  32C    basis set group =>   2
Atom  33H    basis set group =>   1
Atom  34C    basis set group =>   2
Atom  35H    basis set group =>   1
Atom  36C    basis set group =>   2
Atom  37H    basis set group =>   1
Atom  38O    basis set group =>   4
Atom  39H    basis set group =>   1
Atom  40C    basis set group =>   2
Atom  41O    basis set group =>   4
Atom  42O    basis set group =>   4


           ************************************************************
           *        Program running with 32 parallel MPI-processes    *
           *              working on a common directory               *
           ************************************************************
------------------------------------------------------------------------------
                           ORCA GTO INTEGRAL CALCULATION
------------------------------------------------------------------------------
------------------------------------------------------------------------------
                   ___                                                        
                  /   \      - P O W E R E D   B Y -                         
                 /     \                                                     
                 |  |  |   _    _      __       _____    __    __             
                 |  |  |  | |  | |    /  \     |  _  \  |  |  /  |          
                  \  \/   | |  | |   /    \    | | | |  |  | /  /          
                 / \  \   | |__| |  /  /\  \   | |_| |  |  |/  /          
                |  |  |   |  __  | /  /__\  \  |    /   |      \           
                |  |  |   | |  | | |   __   |  |    \   |  |\   \          
                \     /   | |  | | |  |  |  |  | |\  \  |  | \   \       
                 \___/    |_|  |_| |__|  |__|  |_| \__\ |__|  \__/        
                                                                              
                      - O R C A' S   B I G   F R I E N D -                    
                                      &                                       
                       - I N T E G R A L  F E E D E R -                       
                                                                              
 v1 FN, 2020, v2 2021                                                         
------------------------------------------------------------------------------


Reading SHARK input file input.SHARKINP.tmp ... ok
----------------------
SHARK INTEGRAL PACKAGE
----------------------

Number of atoms                             ...     43
Number of basis functions                   ...   2026
Number of shells                            ...    706
Maximum angular momentum                    ...      4
Integral batch strategy                     ... SHARK/LIBINT Hybrid
RI-J (if used) integral strategy            ... SPLIT-RIJ (Revised 2003 algorithm where possible)
Printlevel                                  ...      1
Contraction scheme used                     ... PARTIAL GENERAL contraction
Coulomb Range Separation                    ... NOT USED
Exchange Range Separation                   ... NOT USED
Finite Nucleus Model                        ... NOT USED
Auxiliary Coulomb fitting basis             ... NOT available
Auxiliary J/K fitting basis                 ... NOT available
Auxiliary Correlation fitting basis         ... AVAILABLE
   # of basis functions in Aux-C            ...   4136
   # of shells in Aux-C                     ...    990
   Maximum angular momentum in Aux-C        ...      5
Auxiliary 'external' fitting basis          ... NOT available
Integral threshold                          ...     2.500000e-11
Primitive cut-off                           ...     2.500000e-12
Primitive pair pre-selection threshold      ...     2.500000e-12

Calculating pre-screening integrals         ... done (  0.3 sec) Dimension = 706
Calculating pre-screening integrals (ORCA)  ... done (  0.5 sec) Dimension = 545
Organizing shell pair data                  ... done (  1.5 sec)
Shell pair information
Total number of shell pairs                 ...    249571
Shell pairs after pre-screening             ...    112182
Total number of primitive shell pairs       ...    314157
Primitive shell pairs kept                  ...    127032
          la=0 lb=0:  23539 shell pairs
          la=1 lb=0:  26681 shell pairs
          la=1 lb=1:   7047 shell pairs
          la=2 lb=0:  16556 shell pairs
          la=2 lb=1:   9217 shell pairs
          la=2 lb=2:   3063 shell pairs
          la=3 lb=0:   9237 shell pairs
          la=3 lb=1:   5326 shell pairs
          la=3 lb=2:   3407 shell pairs
          la=3 lb=3:    995 shell pairs
          la=4 lb=0:   3245 shell pairs
          la=4 lb=1:   1866 shell pairs
          la=4 lb=2:   1191 shell pairs
          la=4 lb=3:    678 shell pairs
          la=4 lb=4:    134 shell pairs

Calculating one electron integrals          ... done (  0.4 sec)
Calculating RI/C V-Matrix + Cholesky decomp.... done (  0.9 sec)
Calculating Nuclear repulsion               ... done (  0.0 sec) ENN=   2011.778115536025 Eh

SHARK setup successfully completed in   5.4 seconds

Maximum memory used throughout the entire GTOINT-calculation: 173.3 MB


           ************************************************************
           *        Program running with 32 parallel MPI-processes    *
           *              working on a common directory               *
           ************************************************************
-------------------------------------------------------------------------------
                                 ORCA SCF
-------------------------------------------------------------------------------

------------
SCF SETTINGS
------------
Hamiltonian:
 Ab initio Hamiltonian  Method          .... Hartree-Fock(GTOs)


General Settings:
 Integral files         IntName         .... input
 Hartree-Fock type      HFTyp           .... RHF
 Total Charge           Charge          ....   -1
 Multiplicity           Mult            ....    1
 Number of Electrons    NEL             ....  174
 Basis Dimension        Dim             .... 1865
 Nuclear Repulsion      ENuc            ....   2011.7781155360 Eh

Convergence Acceleration:
 DIIS                   CNVDIIS         .... on
   Start iteration      DIISMaxIt       ....    12
   Startup error        DIISStart       ....  0.200000
   # of expansion vecs  DIISMaxEq       ....     5
   Bias factor          DIISBfac        ....   1.050
   Max. coefficient     DIISMaxC        ....  10.000
 Trust-Rad. Augm. Hess. CNVTRAH         .... auto
   Auto Start mean grad. ratio tolernc. ....  1.125000
   Auto Start start iteration           ....    20
   Auto Start num. interpolation iter.  ....    10
   Max. Number of Micro iterations      ....    16
   Max. Number of Macro iterations      .... Maxiter - #DIIS iter
   Number of Davidson start vectors     ....     2
   Converg. threshold I  (grad. norm)   ....   1.000e-05
   Converg. threshold II (energy diff.) ....   1.000e-08
   Grad. Scal. Fac. for Micro threshold ....   0.100
   Minimum threshold for Micro iter.    ....   0.010
   NR start threshold (gradient norm)   ....   0.001
   Initial trust radius                 ....   0.400
   Minimum AH scaling param. (alpha)    ....   1.000
   Maximum AH scaling param. (alpha)    .... 1000.000
   Orbital update algorithm             .... Taylor
   White noise on init. David. guess    .... on
   Maximum white noise                  ....   0.010
   Quad. conv. algorithm                .... NR
 SOSCF                  CNVSOSCF        .... on
   Start iteration      SOSCFMaxIt      ....   150
   Startup grad/error   SOSCFStart      ....  0.003300
 Level Shifting         CNVShift        .... on
   Level shift para.    LevelShift      ....    0.2500
   Turn off err/grad.   ShiftErr        ....    0.0010
 Zerner damping         CNVZerner       .... off
 Static damping         CNVDamp         .... on
   Fraction old density DampFac         ....    0.7000
   Max. Damping (<1)    DampMax         ....    0.9800
   Min. Damping (>=0)   DampMin         ....    0.0000
   Turn off err/grad.   DampErr         ....    0.1000
 Fernandez-Rico         CNVRico         .... off

SCF Procedure:
 Maximum # iterations   MaxIter         ....   125
 SCF integral mode      SCFMode         .... Direct
   Integral package                     .... SHARK and LIBINT hybrid scheme
 Reset frequency        DirectResetFreq ....    20
 Integral Threshold     Thresh          ....  2.500e-11 Eh
 Primitive CutOff       TCut            ....  2.500e-12 Eh

Convergence Tolerance:
 Convergence Check Mode ConvCheckMode   .... Total+1el-Energy
 Convergence forced     ConvForced      .... 1
 Energy Change          TolE            ....  1.000e-08 Eh
 1-El. energy change                    ....  1.000e-05 Eh
 Orbital Gradient       TolG            ....  1.000e-05
 Orbital Rotation angle TolX            ....  1.000e-05
 DIIS Error             TolErr          ....  5.000e-07


Diagonalization of the overlap matrix:
Smallest eigenvalue                        ... 7.967e-06
Time for diagonalization                   ...    0.371 sec
Threshold for overlap eigenvalues          ... 1.000e-08
Number of eigenvalues below threshold      ... 0
Time for construction of square roots      ...    0.383 sec
Total time needed                          ...    0.768 sec

Time for model grid setup =    0.293 sec

------------------------------
INITIAL GUESS: MODEL POTENTIAL
------------------------------
Loading Hartree-Fock densities                     ... done
Calculating cut-offs                               ... done
Initializing the effective Hamiltonian             ... done
Setting up the integral package (SHARK)            ... done
Starting the Coulomb interaction                   ... done (   0.6 sec)
Reading the grid                                   ... done
Mapping shells                                     ... done
Starting the XC term evaluation                    ... done (   0.1 sec)
Transforming the Hamiltonian                       ... done (   0.3 sec)
Diagonalizing the Hamiltonian                      ... done (   0.4 sec)
Back transforming the eigenvectors                 ... done (   0.1 sec)
Now organizing SCF variables                       ... done
                      ------------------
                      INITIAL GUESS DONE (   2.4 sec)
                      ------------------
--------------
SCF ITERATIONS
--------------
ITER       Energy         Delta-E        Max-DP      RMS-DP      [F,P]     Damp
               ***  Starting incremental Fock matrix formation  ***
  0  -1153.5708222947   0.000000000000 0.19114815  0.00043346  0.3856417 0.7000
  1  -1153.9928934941  -0.422071199381 0.22184043  0.00043132  0.2325254 0.7000
                               ***Turning on DIIS***
  2  -1154.2442020318  -0.251308537727 0.13779867  0.00028059  0.1327176 0.7000
  3  -1156.9740461299  -2.729844098073 0.13230998  0.00044480  0.0794043 0.0000
  4  -1154.6781289568   2.295917173044 0.08198733  0.00011899  0.0084572 0.0000
  5  -1154.7829455944  -0.104816637604 0.03301485  0.00005511  0.0044147 0.0000
                      *** Initiating the SOSCF procedure ***
                           *** Shutting down DIIS ***
                      *** Re-Reading the Fockian *** 
                      *** Removing any level shift *** 
ITER      Energy       Delta-E        Grad      Rot      Max-DP    RMS-DP
  6  -1154.75185216   0.0310934303  0.001250  0.001250  0.017390  0.000029
               *** Restarting incremental Fock matrix formation ***
  7  -1154.77063248  -0.0187803154  0.000587  0.001115  0.008970  0.000019
  8  -1154.77066194  -0.0000294646  0.000237  0.001021  0.006288  0.000013
  9  -1154.77067112  -0.0000091741  0.000049  0.000079  0.001629  0.000004
 10  -1154.77067183  -0.0000007155  0.000023  0.000035  0.000377  0.000001
 11  -1154.77067190  -0.0000000619  0.000007  0.000022  0.000100  0.000000
 12  -1154.77067192  -0.0000000195  0.000004  0.000010  0.000066  0.000000
                  ***Gradient check signals convergence***
              ***Rediagonalizing the Fockian in SOSCF/NRSCF***

               *****************************************************
               *                     SUCCESS                       *
               *           SCF CONVERGED AFTER  13 CYCLES          *
               *****************************************************


----------------
TOTAL SCF ENERGY
----------------

Total Energy       :        -1154.77067193 Eh          -31422.90749 eV

Components:
Nuclear Repulsion  :         2011.77811554 Eh           54743.26562 eV
Electronic Energy  :        -3166.54878746 Eh          -86166.17311 eV
One Electron Energy:        -5603.25273138 Eh         -152472.25836 eV
Two Electron Energy:         2436.70394392 Eh           66306.08525 eV

Virial components:
Potential Energy   :        -2308.80031610 Eh          -62825.65060 eV
Kinetic Energy     :         1154.02964418 Eh           31402.74310 eV
Virial Ratio       :            2.00064212


---------------
SCF CONVERGENCE
---------------

  Last Energy change         ...   -1.3141e-08  Tolerance :   1.0000e-08
  Last MAX-Density change    ...    4.0070e-05  Tolerance :   1.0000e-07
  Last RMS-Density change    ...    8.2298e-08  Tolerance :   5.0000e-09
  Last Orbital Gradient      ...    1.3806e-06  Tolerance :   1.0000e-05
  Last Orbital Rotation      ...    3.5077e-06  Tolerance :   1.0000e-05

             **** THE GBW FILE WAS UPDATED (input.gbw) ****
             **** DENSITY input.scfp WAS UPDATED ****
             **** ENERGY FILE WAS UPDATED (input.en.tmp) ****
             **** THE GBW FILE WAS UPDATED (input.gbw) ****
             **** DENSITY input.scfp WAS UPDATED ****
----------------
ORBITAL ENERGIES
----------------

  NO   OCC          E(Eh)            E(eV) 
   0   2.0000     -20.463974      -556.8530 
   1   2.0000     -20.462747      -556.8196 
   2   2.0000     -20.356247      -553.9216 
   3   2.0000     -20.325896      -553.0957 
   4   2.0000     -20.296693      -552.3011 
   5   2.0000     -20.287643      -552.0548 
   6   2.0000     -15.585737      -424.1095 
   7   2.0000     -15.560628      -423.4262 
   8   2.0000     -15.537388      -422.7938 
   9   2.0000     -11.364660      -309.2481 
  10   2.0000     -11.221245      -305.3456 
  11   2.0000     -11.190489      -304.5087 
  12   2.0000     -11.184536      -304.3467 
  13   2.0000     -11.181475      -304.2634 
  14   2.0000     -11.174765      -304.0808 
  15   2.0000     -11.170521      -303.9653 
  16   2.0000     -11.146053      -303.2995 
  17   2.0000     -11.142039      -303.1903 
  18   2.0000     -11.093940      -301.8815 
  19   2.0000     -11.091941      -301.8271 
  20   2.0000     -11.087674      -301.7109 
  21   2.0000     -11.086347      -301.6748 
  22   2.0000     -11.085028      -301.6389 
  23   2.0000      -1.328815       -36.1589 
  24   2.0000      -1.291356       -35.1396 
  25   2.0000      -1.260135       -34.2900 
  26   2.0000      -1.232773       -33.5454 
  27   2.0000      -1.187499       -32.3135 
  28   2.0000      -1.181971       -32.1631 
  29   2.0000      -1.178916       -32.0799 
  30   2.0000      -1.117920       -30.4202 
  31   2.0000      -1.070574       -29.1318 
  32   2.0000      -1.026146       -27.9229 
  33   2.0000      -0.996547       -27.1174 
  34   2.0000      -0.919434       -25.0191 
  35   2.0000      -0.910789       -24.7838 
  36   2.0000      -0.886162       -24.1137 
  37   2.0000      -0.861747       -23.4493 
  38   2.0000      -0.828951       -22.5569 
  39   2.0000      -0.788861       -21.4660 
  40   2.0000      -0.758229       -20.6325 
  41   2.0000      -0.747219       -20.3329 
  42   2.0000      -0.720579       -19.6080 
  43   2.0000      -0.699677       -19.0392 
  44   2.0000      -0.695978       -18.9385 
  45   2.0000      -0.662578       -18.0297 
  46   2.0000      -0.646590       -17.5946 
  47   2.0000      -0.616771       -16.7832 
  48   2.0000      -0.609582       -16.5876 
  49   2.0000      -0.599831       -16.3222 
  50   2.0000      -0.595699       -16.2098 
  51   2.0000      -0.581381       -15.8202 
  52   2.0000      -0.567887       -15.4530 
  53   2.0000      -0.559007       -15.2114 
  54   2.0000      -0.545037       -14.8312 
  55   2.0000      -0.542643       -14.7661 
  56   2.0000      -0.525334       -14.2951 
  57   2.0000      -0.513816       -13.9817 
  58   2.0000      -0.498326       -13.5601 
  59   2.0000      -0.491072       -13.3627 
  60   2.0000      -0.476403       -12.9636 
  61   2.0000      -0.472681       -12.8623 
  62   2.0000      -0.462600       -12.5880 
  63   2.0000      -0.461048       -12.5458 
  64   2.0000      -0.447119       -12.1667 
  65   2.0000      -0.442175       -12.0322 
  66   2.0000      -0.439213       -11.9516 
  67   2.0000      -0.436197       -11.8695 
  68   2.0000      -0.423652       -11.5281 
  69   2.0000      -0.419457       -11.4140 
  70   2.0000      -0.414577       -11.2812 
  71   2.0000      -0.406081       -11.0500 
  72   2.0000      -0.389160       -10.5896 
  73   2.0000      -0.379528       -10.3275 
  74   2.0000      -0.372319       -10.1313 
  75   2.0000      -0.360827        -9.8186 
  76   2.0000      -0.350416        -9.5353 
  77   2.0000      -0.318609        -8.6698 
  78   2.0000      -0.289562        -7.8794 
  79   2.0000      -0.278252        -7.5716 
  80   2.0000      -0.258338        -7.0297 
  81   2.0000      -0.249050        -6.7770 
  82   2.0000      -0.222014        -6.0413 
  83   2.0000      -0.217870        -5.9285 
  84   2.0000      -0.212424        -5.7804 
  85   2.0000      -0.198886        -5.4120 
  86   2.0000      -0.180591        -4.9141 
  87   0.0000       0.114877         3.1260 
  88   0.0000       0.143204         3.8968 
  89   0.0000       0.166593         4.5332 
  90   0.0000       0.171784         4.6745 
  91   0.0000       0.187319         5.0972 
  92   0.0000       0.191362         5.2072 
  93   0.0000       0.211092         5.7441 
  94   0.0000       0.217890         5.9291 
  95   0.0000       0.223903         6.0927 
  96   0.0000       0.234004         6.3676 
  97   0.0000       0.237336         6.4582 
  98   0.0000       0.244339         6.6488 
  99   0.0000       0.252050         6.8586 
 100   0.0000       0.254668         6.9299 
 101   0.0000       0.259754         7.0683 
 102   0.0000       0.266259         7.2453 
 103   0.0000       0.276655         7.5282 
 104   0.0000       0.283640         7.7182 
 105   0.0000       0.300109         8.1664 
 106   0.0000       0.305336         8.3086 
 107   0.0000       0.308957         8.4072 
 108   0.0000       0.316934         8.6242 
 109   0.0000       0.324608         8.8330 
 110   0.0000       0.329445         8.9646 
 111   0.0000       0.330522         8.9940 
 112   0.0000       0.336545         9.1579 
 113   0.0000       0.345288         9.3958 
 114   0.0000       0.347351         9.4519 
 115   0.0000       0.351983         9.5779 
 116   0.0000       0.358243         9.7483 
 117   0.0000       0.367592        10.0027 
 118   0.0000       0.380580        10.3561 
 119   0.0000       0.390047        10.6137 
 120   0.0000       0.395483        10.7616 
 121   0.0000       0.397207        10.8086 
 122   0.0000       0.407455        11.0874 
 123   0.0000       0.410541        11.1714 
 124   0.0000       0.416462        11.3325 
 125   0.0000       0.420696        11.4477 
 126   0.0000       0.434266        11.8170 
 127   0.0000       0.443195        12.0600 
 128   0.0000       0.445378        12.1194 
 129   0.0000       0.450994        12.2722 
 130   0.0000       0.451466        12.2850 
 131   0.0000       0.456262        12.4155 
 132   0.0000       0.458428        12.4745 
 133   0.0000       0.461924        12.5696 
 134   0.0000       0.468431        12.7466 
 135   0.0000       0.475160        12.9298 
 136   0.0000       0.478163        13.0115 
 137   0.0000       0.481812        13.1108 
 138   0.0000       0.484190        13.1755 
 139   0.0000       0.484536        13.1849 
 140   0.0000       0.494049        13.4438 
 141   0.0000       0.495877        13.4935 
 142   0.0000       0.499895        13.6028 
 143   0.0000       0.506414        13.7802 
 144   0.0000       0.508762        13.8441 
 145   0.0000       0.512368        13.9422 
 146   0.0000       0.514491        14.0000 
 147   0.0000       0.517995        14.0954 
 148   0.0000       0.525728        14.3058 
 149   0.0000       0.534456        14.5433 
 150   0.0000       0.539289        14.6748 
 151   0.0000       0.542198        14.7540 
 152   0.0000       0.544348        14.8125 
 153   0.0000       0.546766        14.8783 
 154   0.0000       0.550599        14.9826 
 155   0.0000       0.552641        15.0381 
 156   0.0000       0.556321        15.1383 
 157   0.0000       0.566715        15.4211 
 158   0.0000       0.570495        15.5239 
 159   0.0000       0.572519        15.5790 
 160   0.0000       0.578537        15.7428 
 161   0.0000       0.581503        15.8235 
 162   0.0000       0.586893        15.9702 
 163   0.0000       0.589511        16.0414 
 164   0.0000       0.592821        16.1315 
 165   0.0000       0.598008        16.2726 
 166   0.0000       0.598859        16.2958 
 167   0.0000       0.604144        16.4396 
 168   0.0000       0.606544        16.5049 
 169   0.0000       0.609941        16.5973 
 170   0.0000       0.619042        16.8450 
 171   0.0000       0.625460        17.0196 
 172   0.0000       0.626877        17.0582 
 173   0.0000       0.629817        17.1382 
 174   0.0000       0.633003        17.2249 
 175   0.0000       0.640238        17.4218 
 176   0.0000       0.642354        17.4793 
 177   0.0000       0.650132        17.6910 
 178   0.0000       0.650953        17.7133 
 179   0.0000       0.657536        17.8925 
 180   0.0000       0.662317        18.0226 
 181   0.0000       0.663490        18.0545 
 182   0.0000       0.668398        18.1880 
 183   0.0000       0.678244        18.4560 
 184   0.0000       0.682421        18.5696 
 185   0.0000       0.685623        18.6568 
 186   0.0000       0.689793        18.7702 
 187   0.0000       0.696157        18.9434 
 188   0.0000       0.697907        18.9910 
 189   0.0000       0.702543        19.1172 
 190   0.0000       0.711101        19.3500 
 191   0.0000       0.715793        19.4777 
 192   0.0000       0.719403        19.5759 
 193   0.0000       0.727398        19.7935 
 194   0.0000       0.731487        19.9048 
 195   0.0000       0.736592        20.0437 
 196   0.0000       0.738543        20.0968 
 197   0.0000       0.751283        20.4435 
 198   0.0000       0.755790        20.5661 
 199   0.0000       0.756707        20.5910 
 200   0.0000       0.765299        20.8248 
 201   0.0000       0.769050        20.9269 
 202   0.0000       0.772219        21.0131 
 203   0.0000       0.775410        21.1000 
 204   0.0000       0.780160        21.2292 
 205   0.0000       0.789577        21.4855 
 206   0.0000       0.791233        21.5305 
 207   0.0000       0.795688        21.6518 
 208   0.0000       0.801431        21.8080 
 209   0.0000       0.808174        21.9915 
 210   0.0000       0.811059        22.0700 
 211   0.0000       0.816808        22.2265 
 212   0.0000       0.818064        22.2607 
 213   0.0000       0.823370        22.4050 
 214   0.0000       0.829376        22.5685 
 215   0.0000       0.833805        22.6890 
 216   0.0000       0.840623        22.8745 
 217   0.0000       0.843317        22.9478 
 218   0.0000       0.848361        23.0851 
 219   0.0000       0.850704        23.1488 
 220   0.0000       0.857264        23.3273 
 221   0.0000       0.858384        23.3578 
 222   0.0000       0.865084        23.5401 
 223   0.0000       0.871686        23.7198 
 224   0.0000       0.873191        23.7607 
 225   0.0000       0.875147        23.8140 
 226   0.0000       0.880635        23.9633 
 227   0.0000       0.883433        24.0394 
 228   0.0000       0.889272        24.1983 
 229   0.0000       0.897212        24.4144 
 230   0.0000       0.900171        24.4949 
 231   0.0000       0.905526        24.6406 
 232   0.0000       0.907270        24.6881 
 233   0.0000       0.908719        24.7275 
 234   0.0000       0.917579        24.9686 
 235   0.0000       0.922873        25.1127 
 236   0.0000       0.925610        25.1871 
 237   0.0000       0.929820        25.3017 
 238   0.0000       0.934055        25.4169 
 239   0.0000       0.936512        25.4838 
 240   0.0000       0.944995        25.7146 
 241   0.0000       0.953468        25.9452 
 242   0.0000       0.953865        25.9560 
 243   0.0000       0.957561        26.0566 
 244   0.0000       0.965950        26.2848 
 245   0.0000       0.968297        26.3487 
 246   0.0000       0.971270        26.4296 
 247   0.0000       0.975854        26.5543 
 248   0.0000       0.977239        26.5920 
 249   0.0000       0.982566        26.7370 
 250   0.0000       0.984336        26.7851 
 251   0.0000       0.988919        26.9098 
 252   0.0000       0.993974        27.0474 
 253   0.0000       1.006913        27.3995 
 254   0.0000       1.009588        27.4723 
 255   0.0000       1.013896        27.5895 
 256   0.0000       1.016888        27.6709 
 257   0.0000       1.026375        27.9291 
 258   0.0000       1.030611        28.0444 
 259   0.0000       1.031778        28.0761 
 260   0.0000       1.039075        28.2747 
 261   0.0000       1.043869        28.4051 
 262   0.0000       1.047245        28.4970 
 263   0.0000       1.052637        28.6437 
 264   0.0000       1.055498        28.7216 
 265   0.0000       1.063159        28.9300 
 266   0.0000       1.065195        28.9854 
 267   0.0000       1.069945        29.1147 
 268   0.0000       1.076462        29.2920 
 269   0.0000       1.078267        29.3411 
 270   0.0000       1.080389        29.3989 
 271   0.0000       1.089474        29.6461 
 272   0.0000       1.095051        29.7978 
 273   0.0000       1.101852        29.9829 
 274   0.0000       1.103224        30.0202 
 275   0.0000       1.106560        30.1110 
 276   0.0000       1.112370        30.2691 
 277   0.0000       1.113145        30.2902 
 278   0.0000       1.115835        30.3634 
 279   0.0000       1.119026        30.4502 
 280   0.0000       1.125269        30.6201 
 281   0.0000       1.135950        30.9108 
 282   0.0000       1.138061        30.9682 
 283   0.0000       1.139579        31.0095 
 284   0.0000       1.141649        31.0658 
 285   0.0000       1.146382        31.1946 
 286   0.0000       1.151877        31.3442 
 287   0.0000       1.157913        31.5084 
 288   0.0000       1.161191        31.5976 
 289   0.0000       1.168300        31.7911 
 290   0.0000       1.173601        31.9353 
 291   0.0000       1.178038        32.0560 
 292   0.0000       1.182077        32.1660 
 293   0.0000       1.187607        32.3164 
 294   0.0000       1.189108        32.3573 
 295   0.0000       1.192222        32.4420 
 296   0.0000       1.193726        32.4829 
 297   0.0000       1.198084        32.6015 
 298   0.0000       1.207190        32.8493 
 299   0.0000       1.213895        33.0317 
 300   0.0000       1.214632        33.0518 
 301   0.0000       1.219023        33.1713 
 302   0.0000       1.226378        33.3714 
 303   0.0000       1.227737        33.4084 
 304   0.0000       1.233387        33.5622 
 305   0.0000       1.237743        33.6807 
 306   0.0000       1.244282        33.8586 
 307   0.0000       1.248856        33.9831 
 308   0.0000       1.254880        34.1470 
 309   0.0000       1.257037        34.2057 
 310   0.0000       1.261471        34.3264 
 311   0.0000       1.267260        34.4839 
 312   0.0000       1.277148        34.7530 
 313   0.0000       1.279013        34.8037 
 314   0.0000       1.284238        34.9459 
 315   0.0000       1.286134        34.9975 
 316   0.0000       1.291300        35.1381 
 317   0.0000       1.292904        35.1817 
 318   0.0000       1.296031        35.2668 
 319   0.0000       1.300349        35.3843 
 320   0.0000       1.305720        35.5304 
 321   0.0000       1.307246        35.5720 
 322   0.0000       1.312069        35.7032 
 323   0.0000       1.321710        35.9656 
 324   0.0000       1.328708        36.1560 
 325   0.0000       1.332588        36.2616 
 326   0.0000       1.340069        36.4651 
 327   0.0000       1.342652        36.5354 
 328   0.0000       1.346247        36.6332 
 329   0.0000       1.348901        36.7055 
 330   0.0000       1.355878        36.8953 
 331   0.0000       1.358341        36.9623 
 332   0.0000       1.363126        37.0925 
 333   0.0000       1.369695        37.2713 
 334   0.0000       1.375612        37.4323 
 335   0.0000       1.380996        37.5788 
 336   0.0000       1.382253        37.6130 
 337   0.0000       1.391204        37.8566 
 338   0.0000       1.392520        37.8924 
 339   0.0000       1.400023        38.0966 
 340   0.0000       1.402053        38.1518 
 341   0.0000       1.406905        38.2838 
 342   0.0000       1.410131        38.3716 
 343   0.0000       1.414179        38.4818 
 344   0.0000       1.419516        38.6270 
 345   0.0000       1.429055        38.8866 
 346   0.0000       1.429866        38.9086 
 347   0.0000       1.436831        39.0982 
 348   0.0000       1.446733        39.3676 
 349   0.0000       1.448389        39.4127 
 350   0.0000       1.457112        39.6500 
 351   0.0000       1.460502        39.7423 
 352   0.0000       1.466413        39.9031 
 353   0.0000       1.472666        40.0733 
 354   0.0000       1.480660        40.2908 
 355   0.0000       1.482509        40.3411 
 356   0.0000       1.490838        40.5678 
 357   0.0000       1.498226        40.7688 
 358   0.0000       1.505733        40.9731 
 359   0.0000       1.511774        41.1374 
 360   0.0000       1.513403        41.1818 
 361   0.0000       1.525168        41.5019 
 362   0.0000       1.531516        41.6747 
 363   0.0000       1.533397        41.7259 
 364   0.0000       1.540095        41.9081 
 365   0.0000       1.547790        42.1175 
 366   0.0000       1.562267        42.5114 
 367   0.0000       1.567403        42.6512 
 368   0.0000       1.571305        42.7574 
 369   0.0000       1.590022        43.2667 
 370   0.0000       1.591870        43.3170 
 371   0.0000       1.598288        43.4916 
 372   0.0000       1.599673        43.5293 
 373   0.0000       1.614110        43.9222 
 374   0.0000       1.626175        44.2505 
 375   0.0000       1.629646        44.3449 
 376   0.0000       1.634019        44.4639 
 377   0.0000       1.641226        44.6600 
 378   0.0000       1.644418        44.7469 
 379   0.0000       1.658496        45.1300 
 380   0.0000       1.660164        45.1753 
 381   0.0000       1.664353        45.2893 
 382   0.0000       1.675548        45.5940 
 383   0.0000       1.686701        45.8975 
 384   0.0000       1.693037        46.0699 
 385   0.0000       1.695116        46.1265 
 386   0.0000       1.699665        46.2502 
 387   0.0000       1.714389        46.6509 
 388   0.0000       1.719697        46.7953 
 389   0.0000       1.729371        47.0586 
 390   0.0000       1.736950        47.2648 
 391   0.0000       1.739846        47.3436 
 392   0.0000       1.743627        47.4465 
 393   0.0000       1.748280        47.5731 
 394   0.0000       1.760576        47.9077 
 395   0.0000       1.765341        48.0374 
 396   0.0000       1.775385        48.3107 
 397   0.0000       1.777212        48.3604 
 398   0.0000       1.779625        48.4261 
 399   0.0000       1.785449        48.5845 
 400   0.0000       1.795679        48.8629 
 401   0.0000       1.798748        48.9464 
 402   0.0000       1.801938        49.0332 
 403   0.0000       1.811152        49.2839 
 404   0.0000       1.813879        49.3582 
 405   0.0000       1.828040        49.7435 
 406   0.0000       1.832200        49.8567 
 407   0.0000       1.846892        50.2565 
 408   0.0000       1.849608        50.3304 
 409   0.0000       1.850504        50.3548 
 410   0.0000       1.864260        50.7291 
 411   0.0000       1.873261        50.9740 
 412   0.0000       1.874455        51.0065 
 413   0.0000       1.881102        51.1874 
 414   0.0000       1.889646        51.4199 
 415   0.0000       1.894062        51.5400 
 416   0.0000       1.907407        51.9032 
 417   0.0000       1.914217        52.0885 
 418   0.0000       1.918543        52.2062 
 419   0.0000       1.923448        52.3397 
 420   0.0000       1.925143        52.3858 
 421   0.0000       1.928192        52.4688 
 422   0.0000       1.933984        52.6264 
 423   0.0000       1.944609        52.9155 
 424   0.0000       1.952710        53.1359 
 425   0.0000       1.959360        53.3169 
 426   0.0000       1.964921        53.4682 
 427   0.0000       1.966509        53.5114 
 428   0.0000       1.975721        53.7621 
 429   0.0000       1.977455        53.8093 
 430   0.0000       1.984947        54.0132 
 431   0.0000       1.986850        54.0649 
 432   0.0000       1.989237        54.1299 
 433   0.0000       1.992906        54.2297 
 434   0.0000       2.005083        54.5611 
 435   0.0000       2.005339        54.5681 
 436   0.0000       2.007997        54.6404 
 437   0.0000       2.016544        54.8729 
 438   0.0000       2.018502        54.9262 
 439   0.0000       2.023895        55.0730 
 440   0.0000       2.032721        55.3132 
 441   0.0000       2.037214        55.4354 
 442   0.0000       2.044430        55.6318 
 443   0.0000       2.049710        55.7754 
 444   0.0000       2.051230        55.8168 
 445   0.0000       2.057773        55.9949 
 446   0.0000       2.064068        56.1662 
 447   0.0000       2.070627        56.3446 
 448   0.0000       2.073110        56.4122 
 449   0.0000       2.080034        56.6006 
 450   0.0000       2.084707        56.7278 
 451   0.0000       2.085769        56.7567 
 452   0.0000       2.089083        56.8468 
 453   0.0000       2.095345        57.0172 
 454   0.0000       2.103079        57.2277 
 455   0.0000       2.107988        57.3613 
 456   0.0000       2.109045        57.3900 
 457   0.0000       2.114984        57.5516 
 458   0.0000       2.118784        57.6551 
 459   0.0000       2.124877        57.8208 
 460   0.0000       2.129908        57.9577 
 461   0.0000       2.136420        58.1349 
 462   0.0000       2.139245        58.2118 
 463   0.0000       2.146620        58.4125 
 464   0.0000       2.148019        58.4506 
 465   0.0000       2.150086        58.5068 
 466   0.0000       2.157030        58.6958 
 467   0.0000       2.159485        58.7626 
 468   0.0000       2.167876        58.9909 
 469   0.0000       2.179700        59.3127 
 470   0.0000       2.187449        59.5235 
 471   0.0000       2.188210        59.5442 
 472   0.0000       2.190946        59.6187 
 473   0.0000       2.197365        59.7933 
 474   0.0000       2.202008        59.9197 
 475   0.0000       2.209133        60.1136 
 476   0.0000       2.211369        60.1744 
 477   0.0000       2.214699        60.2650 
 478   0.0000       2.221579        60.4523 
 479   0.0000       2.225646        60.5629 
 480   0.0000       2.230275        60.6889 
 481   0.0000       2.230736        60.7014 
 482   0.0000       2.237886        60.8960 
 483   0.0000       2.239951        60.9522 
 484   0.0000       2.250942        61.2512 
 485   0.0000       2.252862        61.3035 
 486   0.0000       2.255623        61.3786 
 487   0.0000       2.259657        61.4884 
 488   0.0000       2.266480        61.6741 
 489   0.0000       2.270484        61.7830 
 490   0.0000       2.273794        61.8731 
 491   0.0000       2.281535        62.0837 
 492   0.0000       2.284633        62.1680 
 493   0.0000       2.288860        62.2830 
 494   0.0000       2.293961        62.4219 
 495   0.0000       2.297249        62.5113 
 496   0.0000       2.300023        62.5868 
 497   0.0000       2.307034        62.7776 
 498   0.0000       2.308290        62.8118 
 499   0.0000       2.314249        62.9739 
 500   0.0000       2.318301        63.0842 
 501   0.0000       2.322948        63.2106 
 502   0.0000       2.329268        63.3826 
 503   0.0000       2.334768        63.5323 
 504   0.0000       2.339331        63.6564 
 505   0.0000       2.341507        63.7157 
 506   0.0000       2.347228        63.8713 
 507   0.0000       2.348005        63.8925 
 508   0.0000       2.357279        64.1448 
 509   0.0000       2.362042        64.2744 
 510   0.0000       2.365365        64.3649 
 511   0.0000       2.369347        64.4732 
 512   0.0000       2.373112        64.5757 
 513   0.0000       2.380074        64.7651 
 514   0.0000       2.384517        64.8860 
 515   0.0000       2.386274        64.9338 
 516   0.0000       2.393242        65.1234 
 517   0.0000       2.396037        65.1995 
 518   0.0000       2.399096        65.2827 
 519   0.0000       2.401860        65.3579 
 520   0.0000       2.417860        65.7933 
 521   0.0000       2.420075        65.8536 
 522   0.0000       2.423479        65.9462 
 523   0.0000       2.428242        66.0758 
 524   0.0000       2.431239        66.1574 
 525   0.0000       2.432653        66.1958 
 526   0.0000       2.438658        66.3593 
 527   0.0000       2.447418        66.5976 
 528   0.0000       2.451558        66.7103 
 529   0.0000       2.457714        66.8778 
 530   0.0000       2.458937        66.9111 
 531   0.0000       2.462348        67.0039 
 532   0.0000       2.466078        67.1054 
 533   0.0000       2.471863        67.2628 
 534   0.0000       2.473870        67.3174 
 535   0.0000       2.478249        67.4366 
 536   0.0000       2.486776        67.6686 
 537   0.0000       2.490744        67.7766 
 538   0.0000       2.497580        67.9626 
 539   0.0000       2.498988        68.0009 
 540   0.0000       2.507443        68.2310 
 541   0.0000       2.508635        68.2634 
 542   0.0000       2.516608        68.4804 
 543   0.0000       2.523176        68.6591 
 544   0.0000       2.528623        68.8073 
 545   0.0000       2.534529        68.9680 
 546   0.0000       2.535967        69.0072 
 547   0.0000       2.542286        69.1791 
 548   0.0000       2.544720        69.2454 
 549   0.0000       2.553317        69.4793 
 550   0.0000       2.556254        69.5592 
 551   0.0000       2.559556        69.6491 
 552   0.0000       2.564773        69.7910 
 553   0.0000       2.571898        69.9849 
 554   0.0000       2.576639        70.1139 
 555   0.0000       2.579178        70.1830 
 556   0.0000       2.580776        70.2265 
 557   0.0000       2.584558        70.3294 
 558   0.0000       2.588252        70.4299 
 559   0.0000       2.595100        70.6163 
 560   0.0000       2.602338        70.8132 
 561   0.0000       2.604214        70.8643 
 562   0.0000       2.608729        70.9871 
 563   0.0000       2.614487        71.1438 
 564   0.0000       2.618010        71.2397 
 565   0.0000       2.626097        71.4597 
 566   0.0000       2.629188        71.5439 
 567   0.0000       2.633990        71.6745 
 568   0.0000       2.636104        71.7320 
 569   0.0000       2.639688        71.8295 
 570   0.0000       2.647069        72.0304 
 571   0.0000       2.652688        72.1833 
 572   0.0000       2.658431        72.3396 
 573   0.0000       2.660071        72.3842 
 574   0.0000       2.664060        72.4928 
 575   0.0000       2.665684        72.5369 
 576   0.0000       2.672314        72.7174 
 577   0.0000       2.675060        72.7921 
 578   0.0000       2.683053        73.0096 
 579   0.0000       2.689804        73.1933 
 580   0.0000       2.696242        73.3685 
 581   0.0000       2.699653        73.4613 
 582   0.0000       2.705402        73.6177 
 583   0.0000       2.711346        73.7795 
 584   0.0000       2.714703        73.8708 
 585   0.0000       2.716246        73.9128 
 586   0.0000       2.721365        74.0521 
 587   0.0000       2.724660        74.1418 
 588   0.0000       2.727606        74.2219 
 589   0.0000       2.729817        74.2821 
 590   0.0000       2.736930        74.4757 
 591   0.0000       2.740359        74.5689 
 592   0.0000       2.742848        74.6367 
 593   0.0000       2.745203        74.7008 
 594   0.0000       2.756542        75.0093 
 595   0.0000       2.762337        75.1670 
 596   0.0000       2.765253        75.2464 
 597   0.0000       2.771371        75.4128 
 598   0.0000       2.773607        75.4737 
 599   0.0000       2.774802        75.5062 
 600   0.0000       2.781993        75.7019 
 601   0.0000       2.785984        75.8105 
 602   0.0000       2.792310        75.9826 
 603   0.0000       2.794530        76.0430 
 604   0.0000       2.801270        76.2264 
 605   0.0000       2.807672        76.4006 
 606   0.0000       2.815316        76.6086 
 607   0.0000       2.822498        76.8041 
 608   0.0000       2.826471        76.9122 
 609   0.0000       2.831233        77.0418 
 610   0.0000       2.839362        77.2630 
 611   0.0000       2.840774        77.3014 
 612   0.0000       2.841550        77.3225 
 613   0.0000       2.850194        77.5577 
 614   0.0000       2.851800        77.6014 
 615   0.0000       2.854582        77.6771 
 616   0.0000       2.863513        77.9201 
 617   0.0000       2.870753        78.1172 
 618   0.0000       2.873366        78.1883 
 619   0.0000       2.883890        78.4746 
 620   0.0000       2.887684        78.5779 
 621   0.0000       2.892367        78.7053 
 622   0.0000       2.893624        78.7395 
 623   0.0000       2.897120        78.8347 
 624   0.0000       2.902490        78.9808 
 625   0.0000       2.906107        79.0792 
 626   0.0000       2.909714        79.1774 
 627   0.0000       2.916221        79.3544 
 628   0.0000       2.916825        79.3708 
 629   0.0000       2.928153        79.6791 
 630   0.0000       2.938062        79.9487 
 631   0.0000       2.941534        80.0432 
 632   0.0000       2.946591        80.1808 
 633   0.0000       2.947332        80.2010 
 634   0.0000       2.952173        80.3327 
 635   0.0000       2.955294        80.4176 
 636   0.0000       2.969409        80.8017 
 637   0.0000       2.969913        80.8154 
 638   0.0000       2.975049        80.9552 
 639   0.0000       2.982694        81.1632 
 640   0.0000       2.989631        81.3520 
 641   0.0000       2.997501        81.5661 
 642   0.0000       3.001663        81.6794 
 643   0.0000       3.009526        81.8934 
 644   0.0000       3.012956        81.9867 
 645   0.0000       3.015974        82.0688 
 646   0.0000       3.018929        82.1492 
 647   0.0000       3.022895        82.2571 
 648   0.0000       3.027659        82.3868 
 649   0.0000       3.032601        82.5213 
 650   0.0000       3.041374        82.7600 
 651   0.0000       3.046216        82.8917 
 652   0.0000       3.049691        82.9863 
 653   0.0000       3.053690        83.0951 
 654   0.0000       3.062511        83.3352 
 655   0.0000       3.064452        83.3880 
 656   0.0000       3.067476        83.4703 
 657   0.0000       3.069267        83.5190 
 658   0.0000       3.072738        83.6135 
 659   0.0000       3.084519        83.9340 
 660   0.0000       3.090522        84.0974 
 661   0.0000       3.101799        84.4042 
 662   0.0000       3.104699        84.4832 
 663   0.0000       3.109964        84.6264 
 664   0.0000       3.114600        84.7526 
 665   0.0000       3.120404        84.9105 
 666   0.0000       3.122904        84.9785 
 667   0.0000       3.130841        85.1945 
 668   0.0000       3.134445        85.2926 
 669   0.0000       3.138613        85.4060 
 670   0.0000       3.144662        85.5706 
 671   0.0000       3.157784        85.9277 
 672   0.0000       3.158435        85.9454 
 673   0.0000       3.164896        86.1212 
 674   0.0000       3.177315        86.4591 
 675   0.0000       3.177636        86.4679 
 676   0.0000       3.184912        86.6659 
 677   0.0000       3.186886        86.7196 
 678   0.0000       3.193280        86.8936 
 679   0.0000       3.200767        87.0973 
 680   0.0000       3.203670        87.1763 
 681   0.0000       3.210832        87.3712 
 682   0.0000       3.219145        87.5974 
 683   0.0000       3.224555        87.7446 
 684   0.0000       3.228178        87.8432 
 685   0.0000       3.232433        87.9590 
 686   0.0000       3.238016        88.1109 
 687   0.0000       3.241617        88.2089 
 688   0.0000       3.251011        88.4645 
 689   0.0000       3.253195        88.5239 
 690   0.0000       3.258753        88.6752 
 691   0.0000       3.262217        88.7694 
 692   0.0000       3.278552        89.2139 
 693   0.0000       3.282078        89.3099 
 694   0.0000       3.288338        89.4802 
 695   0.0000       3.291383        89.5631 
 696   0.0000       3.294548        89.6492 
 697   0.0000       3.306155        89.9651 
 698   0.0000       3.311541        90.1116 
 699   0.0000       3.317504        90.2739 
 700   0.0000       3.321168        90.3736 
 701   0.0000       3.328749        90.5799 
 702   0.0000       3.334022        90.7233 
 703   0.0000       3.338545        90.8464 
 704   0.0000       3.346891        91.0735 
 705   0.0000       3.352779        91.2338 
 706   0.0000       3.355421        91.3057 
 707   0.0000       3.368144        91.6518 
 708   0.0000       3.370335        91.7115 
 709   0.0000       3.375164        91.8429 
 710   0.0000       3.380546        91.9893 
 711   0.0000       3.383198        92.0615 
 712   0.0000       3.388990        92.2191 
 713   0.0000       3.394623        92.3724 
 714   0.0000       3.407151        92.7133 
 715   0.0000       3.409684        92.7822 
 716   0.0000       3.412359        92.8550 
 717   0.0000       3.420076        93.0650 
 718   0.0000       3.424201        93.1772 
 719   0.0000       3.429904        93.3324 
 720   0.0000       3.433853        93.4399 
 721   0.0000       3.440993        93.6342 
 722   0.0000       3.445751        93.7636 
 723   0.0000       3.452865        93.9572 
 724   0.0000       3.456877        94.0664 
 725   0.0000       3.467183        94.3469 
 726   0.0000       3.468933        94.3945 
 727   0.0000       3.473447        94.5173 
 728   0.0000       3.480720        94.7152 
 729   0.0000       3.487507        94.8999 
 730   0.0000       3.490987        94.9946 
 731   0.0000       3.500449        95.2520 
 732   0.0000       3.502152        95.2984 
 733   0.0000       3.514989        95.6477 
 734   0.0000       3.516600        95.6915 
 735   0.0000       3.523689        95.8844 
 736   0.0000       3.532091        96.1131 
 737   0.0000       3.537663        96.2647 
 738   0.0000       3.538090        96.2763 
 739   0.0000       3.540894        96.3526 
 740   0.0000       3.545152        96.4685 
 741   0.0000       3.548815        96.5682 
 742   0.0000       3.554757        96.7299 
 743   0.0000       3.558385        96.8286 
 744   0.0000       3.572371        97.2092 
 745   0.0000       3.577565        97.3505 
 746   0.0000       3.592829        97.7658 
 747   0.0000       3.602563        98.0307 
 748   0.0000       3.612298        98.2956 
 749   0.0000       3.615006        98.3693 
 750   0.0000       3.619904        98.5026 
 751   0.0000       3.630752        98.7978 
 752   0.0000       3.635899        98.9379 
 753   0.0000       3.642257        99.1109 
 754   0.0000       3.651571        99.3643 
 755   0.0000       3.659449        99.5787 
 756   0.0000       3.667181        99.7891 
 757   0.0000       3.679376       100.1209 
 758   0.0000       3.685087       100.2763 
 759   0.0000       3.689545       100.3976 
 760   0.0000       3.695639       100.5635 
 761   0.0000       3.703355       100.7734 
 762   0.0000       3.707819       100.8949 
 763   0.0000       3.717339       101.1539 
 764   0.0000       3.720840       101.2492 
 765   0.0000       3.727751       101.4373 
 766   0.0000       3.735977       101.6611 
 767   0.0000       3.741939       101.8233 
 768   0.0000       3.746676       101.9522 
 769   0.0000       3.754883       102.1756 
 770   0.0000       3.762448       102.3814 
 771   0.0000       3.773933       102.6939 
 772   0.0000       3.780965       102.8853 
 773   0.0000       3.782729       102.9333 
 774   0.0000       3.790287       103.1390 
 775   0.0000       3.799958       103.4021 
 776   0.0000       3.805573       103.5549 
 777   0.0000       3.806510       103.5804 
 778   0.0000       3.809704       103.6673 
 779   0.0000       3.814440       103.7962 
 780   0.0000       3.818269       103.9004 
 781   0.0000       3.826849       104.1339 
 782   0.0000       3.833409       104.3124 
 783   0.0000       3.838853       104.4605 
 784   0.0000       3.844322       104.6093 
 785   0.0000       3.847936       104.7077 
 786   0.0000       3.852695       104.8372 
 787   0.0000       3.857105       104.9572 
 788   0.0000       3.868159       105.2580 
 789   0.0000       3.876635       105.4886 
 790   0.0000       3.884024       105.6897 
 791   0.0000       3.891442       105.8915 
 792   0.0000       3.897224       106.0489 
 793   0.0000       3.905211       106.2662 
 794   0.0000       3.913351       106.4877 
 795   0.0000       3.921176       106.7006 
 796   0.0000       3.921695       106.7148 
 797   0.0000       3.928765       106.9071 
 798   0.0000       3.936991       107.1310 
 799   0.0000       3.938878       107.1823 
 800   0.0000       3.943406       107.3055 
 801   0.0000       3.952386       107.5499 
 802   0.0000       3.961861       107.8077 
 803   0.0000       3.966072       107.9223 
 804   0.0000       3.975146       108.1692 
 805   0.0000       3.980881       108.3253 
 806   0.0000       3.987449       108.5040 
 807   0.0000       3.989972       108.5726 
 808   0.0000       3.994086       108.6846 
 809   0.0000       4.003239       108.9337 
 810   0.0000       4.012347       109.1815 
 811   0.0000       4.014613       109.2432 
 812   0.0000       4.030245       109.6685 
[...]

    TCutPairs          =        1.000e-05
    TCutPNO            =        1.000e-07
    TCutPNOSingles     =        3.000e-09
    TCutMP2Pairs       =        1.000e-06
    TCutMKN            =        1.000e-03
    TCutDO             =        5.000e-03

Pair selection                          .... not used
Type of local MP2 treatment                 .... full local PMP2
Strategy for PNO selection                  .... occupation number selection
Pair density normalization                  .... MP2 norm
Spin component scaling                      .... not used

PASS-1: Formation of initial guess LMP2 amplitudes
Initial amplitudes guess done. Entering LMP2 iteration loop:
   Max. no of iterations          ...  50
   Energy convergence tolerance   ...    1.0e-07
   Residual convergence tolerance ...    5.0e-07
   Fock matrix cutoff             ...    1.0e-05 Eh
   DIIS convergence acceleration parameters:
        Max # vectors in DIIS     ... 7
        Start iteration of DIIS   ... 0
        Levelshift                ... 2.000e-01
        Damping factor 1          ... 5.000e-01
        Damping factor 2          ... 1.000e+00
   L-MP2 PNO cut-off              ...   1.0e-09
   L-MP2 PNO cut-off (core)       ...   1.0e-11
                           *** Turning on DIIS ***
LMP2-Iter=   0:  ELMP2= -4.550776647610  DE=   1.0e-01 RMAX=   1.4e-02
LMP2-Iter=   1:  ELMP2= -4.605549474112  DE=   5.5e-02 RMAX=   6.1e-03
LMP2-Iter=   2:  ELMP2= -4.616584271059  DE=   1.1e-02 RMAX=   2.3e-03
LMP2-Iter=   3:  ELMP2= -4.618111435988  DE=   1.5e-03 RMAX=   9.0e-04
LMP2-Iter=   4:  ELMP2= -4.618130233355  DE=   1.9e-05 RMAX=   2.9e-04
LMP2-Iter=   5:  ELMP2= -4.618089784180  DE=   4.0e-05 RMAX=   8.7e-05
LMP2-Iter=   6:  ELMP2= -4.618083612102  DE=   6.2e-06 RMAX=   2.3e-05
LMP2-Iter=   7:  ELMP2= -4.618084876714  DE=   1.3e-06 RMAX=   7.0e-06
LMP2-Iter=   8:  ELMP2= -4.618085583925  DE=   7.1e-07 RMAX=   1.9e-06
LMP2-Iter=   9:  ELMP2= -4.618085535643  DE=   4.8e-08 RMAX=   5.4e-07
LMP2-Iter=  10:  ELMP2= -4.618085525748  DE=   9.9e-09 RMAX=   1.4e-07
LMP2-Iter=  11:  ELMP2= -4.618085496135  DE=   3.0e-08 RMAX=   4.0e-08 => CONVERGED
PASS-2: Formation of Pair natural orbitals
   .... Finished loop over pairs

 PNO Occupation Number Statistics: 
  | Av. % of trace(Dij) retained        ...  97.545912083826
  | sigma^2 in % of trace(Dij) retained ...   1.45e+01
  | Av. % of trace(Di) retained         ...  99.999512586656
  | sigma^2 in % of trace(Di) retained  ...   1.83e-08
 Distributions of % trace(Dij) recovered:
  |       >= 99.9  ...   226 ( 13.4 % of all pairs)
  |   [60.0, 70.0) ...     1 (  0.1 % of all pairs)
  |   [70.0, 80.0) ...    19 (  1.1 % of all pairs)
  |   [80.0, 90.0) ...    62 (  3.7 % of all pairs)
  |   [90.0, 99.0) ...   867 ( 51.5 % of all pairs)
  |   [99.0, 99.9) ...   510 ( 30.3 % of all pairs)
 Distributions of % trace(Di) recovered :
  |       >= 99.9  ...    64 (100.0 % of all I-pairs )

Making pair pair interaction lists          ... done

                       ===========================
                       1123 OF 1685 PAIRS ARE KEPT
                       ===========================

Total time spent in the initial guess                 ...  1589.899 sec
L-MP2 correlation energy (all non-screened pairs)     ...      -4.618085496135 Eh
L-MP2 PNO error correction                            ...      -0.000323759218 Eh
                                                          --------------------
Initial total L-MP2 energy (non-screened pairs)       ...      -4.618409255353 Eh

Initial PNO correlation energy                        ...      -4.606936699755 Eh
sum of pair energies estimated for screened out pairs ...      -0.000161018763 Eh
sum of MP2 pair energies for pairs that were not kept ...      -0.002629959043 Eh
sum of PNO error estimates for the kept pairs         ...      -0.009325870858 Eh
                                                          --------------------
sum of all corrections                                         -0.012116848664
Initial total correlation energy                               -4.619053548419
Thresholds for map construction and integral transformation for fine MP2 and CCSD(T) calculation:
   TCutMKN   ...     1.0e-03
   TCutDO    ...     5.0e-03
   TCutPairs ...     1.0e-05
   TCutCMO   ...     1.0e-03
   TCutCPAO  ...     1.0e-03

Time for aux screen maps:            0.027
Time for maps after fine MP2:            0.226
-----------------------------
LOCAL RI TRANSFORMATION (IJV)
-----------------------------

Orbital window:      23 to 86
Basis functions:   1865 (545 shells)
Aux. functions:    4136 (990 shells)
Use SHARK:           on

Processing maps (0.0 sec)
Average map sizes:
   Aux shells -> MOs(i)           53.4
   Aux shells -> MOs(j)           64.0
   MOs        -> AO shells       461.0

Calculating integrals (13.8 sec, 108.506 MB)
Sorting integrals (0.3 sec, 108.459 MB)
Total time for the integral transformation: 14.1 sec
--------------------------------
LOCAL RI TRANSFORMATION (VABPAO)
--------------------------------

Number of PAOs:    1865
Basis functions:   1865 (545 shells)
Aux. functions:    4136 (990 shells)
Use SHARK:           on

Processing maps (0.0 sec)
Average map sizes:
   Aux shells -> PAOs           1814.2
   PAOs       -> AO shells       523.7

Calculating integrals (448.5 sec, 104295.830 MB)
Finished


-------------------------------------
Pair Pair Term precalculation with     
RI-(ij|mn) and (im|jn) transformation  
ON THE FLY                             
-------------------------------------

   IBatch   1 (of   5)              ... done (  559.832 sec)
   IBatch   2 (of   5)              ... done (  556.032 sec)
   IBatch   3 (of   5)              ... done (  705.553 sec)
   IBatch   4 (of   5)              ... done (  739.075 sec)
   IBatch   5 (of   5)              ... done (  870.847 sec)
Total EXT                           ...        3431.340 sec

---------------------
RI-PNO TRANSFORMATION
---------------------

Total Number of PNOs                   ... 42516
Average number of PNOs per pair        ...    37
Maximal number of PNOs per pair        ...   126
   #pairs with  1 -  5 PNOs   :    0
   #pairs with  6 - 10 PNOs   :  239
   #pairs with 11 - 15 PNOs   :  126
   #pairs with 16 - 20 PNOs   :   75
   #pairs with 21 - 25 PNOs   :   69
   #pairs with 26 - 30 PNOs   :   77
   #pairs with 31 - 35 PNOs   :   53
   #pairs with 36 - 40 PNOs   :   52
   #pairs with 41 - 45 PNOs   :   35
   #pairs with 46 - 50 PNOs   :   29
   #pairs with 51 - 55 PNOs   :   49
   #pairs with 56 - 60 PNOs   :   54
   #pairs with 61 - 65 PNOs   :   36
   #pairs with 66 - 70 PNOs   :   23
   #pairs with 71 - 75 PNOs   :   11
   #pairs with 76 - 80 PNOs   :   52
   #pairs with 81 - 85 PNOs   :   43
   #pairs with 86 - 90 PNOs   :   33
   #pairs with 91 - 95 PNOs   :   39
   #pairs with > 96 PNOs      :   28

Generation of (ij|ab)[P] integrals            ... on
Generation of (ia|bc)[P],(ja|bc)[P] integrals ... on
Storage of 3 and 4 external integrals         ... on
Generation of ALL (ka|bc)[P] integrals        ... on
Keep RI integrals in memory                   ... off

Ibatch:  1 (of  1)
Starting 2-4 index PNO integral generation ... done

Timings:
Total PNO integral transformation time     ...       2208.517 sec
Size of the 3-external file                ...      1432 MB
Size of the 4-external file                ...     14521 MB
Size of the IKJL file                      ...         0 MB
Size of the all 3-external file            ...     39874 MB
Size of the 1-external file                ...        55 MB

Making pair/pair overlap matrices          ... done (  458.169 sec)
Size of the pair overlap file              ... 9201 MB
Redoing the guess amplitudes               ... done (    0.108 sec)

-------------------------
FINAL STARTUP INFORMATION
-------------------------

E(0)                                       ...  -1154.770671917
E(L-MP2)                                   ...     -4.618409255
E(L-MP2) including corrections             ...     -4.619053548
Initial E(tot)                             ...  -1159.389725465
<T|T>                                      ...      1.125955199
Number of pairs included                   ... 1123
Total number of pairs                      ... 2080

------------------------------------------------
                  RHF COUPLED CLUSTER ITERATIONS
------------------------------------------------

Number of PNO amplitudes to be optimized   ...      2540346
Number of non-PNO amplitudes               ...   3550121932
Untruncated number of regular amplitudes   ...   6575470720

Iter       E(tot)           E(Corr)          Delta-E          Residual     Time
  0  -1159.217299970     -4.434511204      0.183898051      0.014087749  216.31
                           *** Turning on DIIS ***
  1  -1159.284254673     -4.501465907     -0.066954703      0.010168090  191.67
  2  -1159.383567319     -4.600778554     -0.099312647      0.005935958  195.60
  3  -1159.407572904     -4.624784139     -0.024005585      0.003223828  196.49
  4  -1159.414702901     -4.631914136     -0.007129997      0.001678712  191.82
  5  -1159.416962716     -4.634173951     -0.002259815      0.000818105  191.24
  6  -1159.417552351     -4.634763586     -0.000589635      0.000380331  193.49
  7  -1159.417672554     -4.634883789     -0.000120203      0.000199204  191.23
  8  -1159.417701652     -4.634912887     -0.000029098      0.000112748  192.48
  9  -1159.417679073     -4.634890307      0.000022580      0.000056448  193.25
 10  -1159.417686200     -4.634897434     -0.000007127      0.000027685  189.71
 11  -1159.417683899     -4.634895133      0.000002300      0.000015128  196.14
 12  -1159.417682670     -4.634893904      0.000001229      0.000008446  192.53
               --- The Coupled-Cluster iterations have converged ---

----------------------
COUPLED CLUSTER ENERGY
----------------------

E(0)                                       ...  -1154.770671917
E(CORR)(strong-pairs)                      ...     -4.634893904
E(CORR)(weak-pairs)                        ...     -0.012116849
E(CORR)(corrected)                         ...     -4.647010753
E(TOT)                                     ...  -1159.417682670
Singles Norm <S|S>**1/2                    ...      0.152642941  
T1 diagnostic                              ...      0.013491857  

------------------
LARGEST AMPLITUDES
------------------
  55-> 87  55-> 87       0.055915
  54-> 87  54-> 87       0.052347
  68-> 87  68-> 87       0.051946
  72-> 87  72-> 87       0.047034
  55-> 87  54-> 87       0.047002
  73-> 87  73-> 87       0.045467
  69-> 87  69-> 87       0.043741
  42-> 87  42-> 87       0.042027
  69-> 87  68-> 87       0.041020
  75-> 89  75-> 89       0.040855
  51-> 89  51-> 89       0.039441
  73-> 87  72-> 87       0.039254
  56-> 91  56-> 91       0.038859
  79-> 87  79-> 87       0.035456
  58-> 87  58-> 87       0.034762
  59-> 87  59-> 87       0.034515


-------------------------------------------
DLPNO BASED TRIPLES CORRECTION
-------------------------------------------

Singles multiplier          ...  1.000000
TCutTNO                     ... 1.000e-09
TCutMP2Pairs                ... 1.000e-06
TCutDOStrong                ... 1.000e-02
TCutMKNStrong               ... 1.000e-02
TCutDOWeak                  ... 2.000e-02
TCutMKNWeak                 ... 1.000e-01

Fragment selection                          .... not used
Fock matrix occ-virt block is zero --> Setting DT_in_Triples to false.
Number of Triples that are to be computed   ...     19104

 . . . . . . . . .
10% done  
20% done               (   6993.265 sec)
 . . . . . . . . .
30% done  
40% done  
50% done  
60% done  
70% done               (  10766.410 sec)
 . . . . . . . . .
80% done  
90% done               (   5520.489 sec)
Triples timings:
Total time for T0               ... 25740.027 sec
Total time for Iterative (T)    ...     0.000 sec
Total time of overall (T)       ... 26357.786 sec

Triples List generation         ...     0.000 sec
TNO generation                  ...  2459.430 sec
Pair density generation         ...     0.056 sec
Look up tables                  ...     0.000 sec
Generating 3-index integrals    ... 19593.205 sec
  Make 4-ind.int. from 3-ind.int...   267.512 sec
  Projecting amplitudes (D + S) ...  3210.745 sec
  Downprojecting integrals      ...     0.010 sec
  Energy contr. (sum over a,b,c)...    14.915 sec
Fitting ET(->0)                 ...     0.000 sec

Everything after 3-index        ...  3686.959 sec

Timing details:
 TNO integrals                  ... 19848.763 sec
   Reading 3-index integrals    ...   496.848 sec
   Sorting integrals            ...  1553.422 sec
       Sorting integrals 1      ...     0.007 sec
       Sorting integrals 2      ...  1525.636 sec
       Sorting integrals 3      ...     6.826 sec
       Sorting integrals 4      ...     0.554 sec
       Sorting integrals 5      ...     5.945 sec
       Sorting integrals 6      ...    14.454 sec
   Calculating local VM**-1/2   ...    20.929 sec
   Orthogonal. integrals        ...    31.241 sec
   Multipl. 3-index integrals   ... 17746.324 sec
   All concerning IRIab (w/TNO) ...   192.557 sec

 Calculate W0/W1                ...   193.737 sec
 W 3-ext contribution           ...   128.734 sec
 W 3-int contribution           ...    49.842 sec
 Sorting W                      ...    13.208 sec

 V exchange contribution        ...     4.022 sec

 Timings for Triples without generation
     of 3-index integrals       ...  3686.949 sec
       0 weak pairs             ...  2679.560 sec
       1 weak pair              ...  1007.388 sec
       2 weak pairs             ...     0.000 sec
       3 weak pairs             ...     0.000 sec
  Extra time for extrapolation  ...     0.000 sec

Number of Triples   (0, 1, 2, 3 weak pairs; overall):  11536    7568       0       0  ( 19104)
Number of Atoms     (0, 1, 2, 3 weak pairs; overall):   23.8    23.1     0.0     0.0  (    43)
Number of PAOs      (0, 1, 2, 3 weak pairs; overall): 1084.7  1060.7     0.0     0.0  (  1865)
Number of AuxFcns   (0, 1, 2, 3 weak pairs; overall):  878.8   635.7     0.0     0.0  (  4136)
Number of TNOs      (0, 1, 2, 3 weak pairs         ):  106.1    58.1     0.0     0.0
Aver. Number of NTNO, Atoms, PAOs, AuxFcns / Triples:  19104    87.1    23.5  1075.2   782.5

Triples Correction (T)                     ...     -0.211984126
Final correlation energy                   ...     -4.858994880
E(CCSD)                                    ...  -1159.417682670
E(CCSD(T))                                 ...  -1159.629666796



--------------------------------------------------------------------------------
                                    TIMINGS
--------------------------------------------------------------------------------


Total execution time                   ...    38078.671 sec

Localization of occupied MO's          ...       13.990 sec (  0.0%)
Fock Matrix Formation                  ...      340.670 sec (  0.9%)
Global overlap, Fock, MKN matrices     ...       15.492 sec (  0.0%)
Differential overlap integrals         ...        4.713 sec (  0.0%)
Organizing maps                        ...        0.605 sec (  0.0%)
RI 3-index integral generations        ...      526.448 sec (  1.4%)
RI-PNO integral transformation         ...     6200.856 sec ( 16.3%)
Initial Guess                          ...     2082.905 sec (  5.5%)
DIIS Solver                            ...       29.692 sec (  0.1%)
State Vector Update                    ...        0.277 sec (  0.0%)
Sigma-vector construction              ...     2519.302 sec (  6.6%)
  <0|H|D>                              ...        0.001 sec (  0.0% of sigma)
  <D|H|D>(0-ext)                       ...      119.746 sec (  4.8% of sigma)
  <D|H|D>(2-ext Fock)                  ...        0.142 sec (  0.0% of sigma)
  <D|H|D>(2-ext)                       ...     1084.209 sec ( 43.0% of sigma)
  <D|H|D>(4-ext)                       ...       92.588 sec (  3.7% of sigma)
  <D|H|D>(4-ext-corr)                  ...      554.319 sec ( 22.0% of sigma)
  CCSD doubles correction              ...        3.061 sec (  0.1% of sigma)
  <S|H|S>                              ...        5.880 sec (  0.2% of sigma)
  <S|H|D>(1-ext)                       ...        6.994 sec (  0.3% of sigma)
  <D|H|S>(1-ext)                       ...        0.117 sec (  0.0% of sigma)
  <S|H|D>(3-ext)                       ...        2.402 sec (  0.1% of sigma)
  CCSD singles correction              ...        0.001 sec (  0.0% of sigma)
  Fock-dressing                        ...      344.847 sec ( 13.7% of sigma)
  Singles amplitudes                   ...       60.100 sec (  2.4% of sigma)
  (ik|jl)-dressing                     ...       56.782 sec (  2.3% of sigma)
  (ij|ab),(ia|jb)-dressing             ...       25.734 sec (  1.0% of sigma)
  Pair energies                        ...        0.034 sec (  0.0% of sigma)
Total Time for computing (T)           ...    26357.904 sec ( 69.2% of ALL)


Maximum memory used throughout the entire MDCI-calculation: 10131.9 MB

-------------------------   --------------------
FINAL SINGLE POINT ENERGY     -1159.629666796470
-------------------------   --------------------


                            ***************************************
                            *     ORCA property calculations      *
                            ***************************************


  WARNING: The energy has been calculated at the MDCI level but the densities
           used in the property calculations are still SCF densities
           MDCI response densities have not been calculated 
           use %mdci Density linearized end
           or  %mdci Density unrelaxed end
           or  %mdci Density orbopt end

                                    ---------------------
                                    Active property flags
                                    ---------------------
   (+) Dipole Moment


------------------------------------------------------------------------------
                       ORCA ELECTRIC PROPERTIES CALCULATION
------------------------------------------------------------------------------

Dipole Moment Calculation                       ... on
Quadrupole Moment Calculation                   ... off
Polarizability Calculation                      ... off
GBWName                                         ... input.gbw
Electron density                                ... input.scfp
The origin for moment calculation is the CENTER OF MASS  = (19.868886, 18.410369 18.433711)

-------------
DIPOLE MOMENT
-------------
                                X             Y             Z
Electronic contribution:     24.39527      -9.69440      -0.35149
Nuclear contribution   :    -35.21142      13.59272       6.11691
                        -----------------------------------------
Total Dipole Moment    :    -10.81615       3.89832       5.76542
                        -----------------------------------------
Magnitude (a.u.)       :     12.86181
Magnitude (Debye)      :     32.69212



--------------------
Rotational spectrum 
--------------------
 
Rotational constants in cm-1:     0.015403     0.004090     0.003991 
Rotational constants in MHz :   461.783458   122.604014   119.647687 

 Dipole components along the rotational axes: 
x,y,z [a.u.] :    11.925941     4.390139     1.981092 
x,y,z [Debye]:    30.313334    11.158845     5.035536 

 

Timings for individual modules:

Sum of individual times         ...    40757.310 sec (= 679.289 min)
GTO integral calculation        ...        7.203 sec (=   0.120 min)   0.0 %
SCF iterations                  ...     2668.349 sec (=  44.472 min)   6.5 %
MDCI module                     ...    38081.758 sec (= 634.696 min)  93.4 %
                             ****ORCA TERMINATED NORMALLY****
TOTAL RUN TIME: 0 days 11 hours 19 minutes 22 seconds 578 msec
