Loading orca/5.0.3
  Loading requirement: gcc-runtime/11.3.1-gcc-11.3.1-jw6fhud
    numactl/2.0.14-gcc-11.3.1-tqvsbcd openssh/8.7p1-gcc-11.3.1-ddo4kmk
    libiconv/1.17-gcc-11.3.1-h3jdn2x xz/5.4.1-gcc-11.3.1-y32p7p3
    zlib/1.2.13-gcc-11.3.1-dwcx77k libxml2/2.10.3-gcc-11.3.1-m4mk5ab
    cuda/11.8.0-gcc-11.3.1-i5witig libpciaccess/0.17-gcc-11.3.1-qksiqer
    ncurses/6.4-gcc-11.3.1-afnu276 hwloc/2.9.1-gcc-11.3.1-qedjm66
    openssl/3.1.2-gcc-11.3.1-mgoa6lt libevent/2.1.12-gcc-11.3.1-bpr3m74
    pmix/4.2.2-gcc-11.3.1-du4y5e7 slurm/22.05.6-gcc-11.3.1-atym2np
    libnl/3.3.0-gcc-11.3.1-gh3muw7 rdma-core/41.0-gcc-11.3.1-isp54jw
    ucx/1.14.1-gcc-11.3.1-o3wj4kz openmpi/4.1.2-gcc-11.3.1-fs7u3kb

                                 *****************
                                 * O   R   C   A *
                                 *****************

                                            #,                                       
                                            ###                                      
                                            ####                                     
                                            #####                                    
                                            ######                                   
                                           ########,                                 
                                     ,,################,,,,,                         
                               ,,#################################,,                 
                          ,,##########################################,,             
                       ,#########################################, ''#####,          
                    ,#############################################,,   '####,        
                  ,##################################################,,,,####,       
                ,###########''''           ''''###############################       
              ,#####''   ,,,,##########,,,,          '''####'''          '####       
            ,##' ,,,,###########################,,,                        '##       
           ' ,,###''''                  '''############,,,                           
         ,,##''                                '''############,,,,        ,,,,,,###''
      ,#''                                            '''#######################'''  
     '                                                          ''''####''''         
             ,#######,   #######,   ,#######,      ##                                
            ,#'     '#,  ##    ##  ,#'     '#,    #''#        ######   ,####,        
            ##       ##  ##   ,#'  ##            #'  '#       #        #'  '#        
            ##       ##  #######   ##           ,######,      #####,   #    #        
            '#,     ,#'  ##    ##  '#,     ,#' ,#      #,         ##   #,  ,#        
             '#######'   ##     ##  '#######'  #'      '#     #####' # '####'        



                  #######################################################
                  #                        -***-                        #
                  #          Department of theory and spectroscopy      #
                  #    Directorship and core code : Frank Neese         #
                  #        Max Planck Institute fuer Kohlenforschung    #
                  #                Kaiser Wilhelm Platz 1               #
                  #                 D-45470 Muelheim/Ruhr               #
                  #                      Germany                        #
                  #                                                     #
                  #                  All rights reserved                #
                  #                        -***-                        #
                  #######################################################


                         Program Version 5.0.3 -  RELEASE  -


 With contributions from (in alphabetic order):
   Daniel Aravena         : Magnetic Suceptibility
   Michael Atanasov       : Ab Initio Ligand Field Theory (pilot matlab implementation)
   Alexander A. Auer      : GIAO ZORA, VPT2 properties, NMR spectrum
   Ute Becker             : Parallelization
   Giovanni Bistoni       : ED, misc. LED, open-shell LED, HFLD
   Martin Brehm           : Molecular dynamics
   Dmytro Bykov           : SCF Hessian
   Vijay G. Chilkuri      : MRCI spin determinant printing, contributions to CSF-ICE
   Dipayan Datta          : RHF DLPNO-CCSD density
   Achintya Kumar Dutta   : EOM-CC, STEOM-CC
   Dmitry Ganyushin       : Spin-Orbit,Spin-Spin,Magnetic field MRCI
   Miquel Garcia          : C-PCM and meta-GGA Hessian, CC/C-PCM, Gaussian charge scheme
   Yang Guo               : DLPNO-NEVPT2, F12-NEVPT2, CIM, IAO-localization
   Andreas Hansen         : Spin unrestricted coupled pair/coupled cluster methods
   Benjamin Helmich-Paris : MC-RPA, TRAH-SCF, COSX integrals
   Lee Huntington         : MR-EOM, pCC
   Robert Izsak           : Overlap fitted RIJCOSX, COSX-SCS-MP3, EOM
   Marcus Kettner         : VPT2
   Christian Kollmar      : KDIIS, OOCD, Brueckner-CCSD(T), CCSD density, CASPT2, CASPT2-K
   Simone Kossmann        : Meta GGA functionals, TD-DFT gradient, OOMP2, MP2 Hessian
   Martin Krupicka        : Initial AUTO-CI
   Lucas Lang             : DCDCAS
   Marvin Lechner         : AUTO-CI (C++ implementation), FIC-MRCC
   Dagmar Lenk            : GEPOL surface, SMD
   Dimitrios Liakos       : Extrapolation schemes; Compound Job, initial MDCI parallelization
   Dimitrios Manganas     : Further ROCIS development; embedding schemes
   Dimitrios Pantazis     : SARC Basis sets
   Anastasios Papadopoulos: AUTO-CI, single reference methods and gradients
   Taras Petrenko         : DFT Hessian,TD-DFT gradient, ASA, ECA, R-Raman, ABS, FL, XAS/XES, NRVS
   Peter Pinski           : DLPNO-MP2, DLPNO-MP2 Gradient
   Christoph Reimann      : Effective Core Potentials
   Marius Retegan         : Local ZFS, SOC
   Christoph Riplinger    : Optimizer, TS searches, QM/MM, DLPNO-CCSD(T), (RO)-DLPNO pert. Triples
   Tobias Risthaus        : Range-separated hybrids, TD-DFT gradient, RPA, STAB
   Michael Roemelt        : Original ROCIS implementation
   Masaaki Saitow         : Open-shell DLPNO-CCSD energy and density
   Barbara Sandhoefer     : DKH picture change effects
   Avijit Sen             : IP-ROCIS
   Kantharuban Sivalingam : CASSCF convergence, NEVPT2, FIC-MRCI
   Bernardo de Souza      : ESD, SOC TD-DFT
   Georgi Stoychev        : AutoAux, RI-MP2 NMR, DLPNO-MP2 response
   Willem Van den Heuvel  : Paramagnetic NMR
   Boris Wezisla          : Elementary symmetry handling
   Frank Wennmohs         : Technical directorship


 We gratefully acknowledge several colleagues who have allowed us to
 interface, adapt or use parts of their codes:
   Stefan Grimme, W. Hujo, H. Kruse, P. Pracht,  : VdW corrections, initial TS optimization,
                  C. Bannwarth, S. Ehlert          DFT functionals, gCP, sTDA/sTD-DF
   Ed Valeev, F. Pavosevic, A. Kumar             : LibInt (2-el integral package), F12 methods
   Garnet Chan, S. Sharma, J. Yang, R. Olivares  : DMRG
   Ulf Ekstrom                                   : XCFun DFT Library
   Mihaly Kallay                                 : mrcc  (arbitrary order and MRCC methods)
   Jiri Pittner, Ondrej Demel                    : Mk-CCSD
   Frank Weinhold                                : gennbo (NPA and NBO analysis)
   Christopher J. Cramer and Donald G. Truhlar   : smd solvation model
   Lars Goerigk                                  : TD-DFT with DH, B97 family of functionals
   V. Asgeirsson, H. Jonsson                     : NEB implementation
   FAccTs GmbH                                   : IRC, NEB, NEB-TS, DLPNO-Multilevel, CI-OPT
                                                   MM, QMMM, 2- and 3-layer-ONIOM, Crystal-QMMM,
                                                   LR-CPCM, SF, NACMEs, symmetry and pop. for TD-DFT,
                                                   nearIR, NL-DFT gradient (VV10), updates on ESD,
                                                   ML-optimized integration grids
   S Lehtola, MJT Oliveira, MAL Marques          : LibXC Library
   Liviu Ungur et al                             : ANISO software


 Your calculation uses the libint2 library for the computation of 2-el integrals
 For citations please refer to: http://libint.valeyev.net

 Your ORCA version has been built with support for libXC version: 5.1.0
 For citations please refer to: https://tddft.org/programs/libxc/

 This ORCA versions uses:
   CBLAS   interface :  Fast vector & matrix operations
   LAPACKE interface :  Fast linear algebra routines
   SCALAPACK package :  Parallel linear algebra routines
   Shared memory     :  Shared parallel matrices
   BLAS/LAPACK       :  OpenBLAS 0.3.15  USE64BITINT DYNAMIC_ARCH NO_AFFINITY Prescott SINGLE_THREADED
        Core in use  :  Prescott
   Copyright (c) 2011-2014, The OpenBLAS Project


================================================================================

----- Orbital basis set information -----
Your calculation utilizes the basis: cc-pVTZ 
       H, B-Ne : Obtained from the ccRepo (grant-hill.group.shef.ac.uk/ccrepo) Feb. 2017
                 T. H. Dunning, Jr., J. Chem. Phys. 90, 1007 (1989)
            He : Obtained from the ccRepo (grant-hill.group.shef.ac.uk/ccrepo) Feb. 2017
                 D. E. Woon, T. H. Dunning, Jr., J. Chem. Phys. 100, 2975 (1994)
  Li-Be, Na-Mg : Obtained from the ccRepo (grant-hill.group.shef.ac.uk/ccrepo) Feb. 2017
                 B. P. Prascher, D. E. Woon, K. A. Peterson, T. H. Dunning, Jr., A. K. Wilson, Theor. Chem. Acc. 128, 69 (2011)
         Al-Ar : Obtained from the ccRepo (grant-hill.group.shef.ac.uk/ccrepo) Feb. 2017
                 D. E. Woon, T. H. Dunning, Jr., J. Chem. Phys. 98, 1358 (1993)
            Ca : Obtained from the Peterson Research Group Website (tyr0.chem.wsu.edu/~kipeters) Feb. 2017
                 J. Koput, K. A. Peterson, J. Phys. Chem. 106, 9595 (2002)
         Sc-Zn : Obtained from the ccRepo (grant-hill.group.shef.ac.uk/ccrepo) Feb. 2017
                 N. B. Balabanov, K. A. Peterson, J. Chem. Phys. 123, 064107 (2005)
                 N. B. Balabanov, K. A. Peterson, J. Chem. Phys. 125, 074110 (2006)
         Ga-Kr : Obtained from the ccRepo (grant-hill.group.shef.ac.uk/ccrepo) Feb. 2017
                 A. K. Wilson, D. E. Woon, K. A. Peterson, T. H. Dunning, Jr., J. Chem. Phys. 110, 7667 (1999)
             Y : Obtained from the ccRepo (grant-hill.group.shef.ac.uk/ccrepo) Feb. 2017
                 K. A. Peterson, D. Figgen, M. Dolg, H. Stoll, J. Chem. Phys. 126, 124101 (2007)
        Ag, Au : Obtained from the Peterson Research Group Website (tyr0.chem.wsu.edu/~kipeters) Feb. 2017
                 K. A. Peterson, C. Puzzarini, Theor. Chem. Acc. 114, 283 (2005)

----- AuxC basis set information -----
Your calculation utilizes the auxiliary basis: cc-pVTZ/C 
  Obtained from the EMSL Basis Set Exchange (bse.pnl.gov) Feb. 2017
  H-He, B-F, Al-Ar, Ga-Kr : F. Weigend, A. Kohn, C. Hattig, J. Chem. Phys. 116, 3175 (2002)
             Li-Be, Na-Mg : C. Haettig, Phys. Chem. Chem. Phys. 7, 59 (2005)
                       Ne : C. Haettig, Phys. Chem. Chem. Phys. 7, 59 (2005)
                            F. Weigend, A. Kohn, C. Hattig, J. Chem. Phys. 116, 3175 (2002)
                    Sc-Zn : J. G. Hill, J. A. Platts, J. Chem. Phys. 128, 044104 (2008)

================================================================================
                                        WARNINGS
                       Please study these warnings very carefully!
================================================================================


WARNING: Post HF methods need fully converged wavefunctions
  ===> : Setting SCFConvForced true
         You can overwrite this default with %scf ConvForced false 


WARNING: MDCI localization with Augmented Hessian Foster-Boys
  ===> : Switching off randomization!

INFO   : the flag for use of the SHARK integral package has been found!

================================================================================
                                       INPUT FILE
================================================================================
NAME = input
|  1> ! DLPNO-CCSD(T) cc-pVTZ cc-pVTZ/C TIGHTPNO TIGHTSCF
|  2> %maxcore 10000
|  3> %pal
|  4> nprocs 16
|  5> end
|  6> *xyz -1 1
|  7> H 4.322954811427 12.903581979119 8.265088616524
|  8> C 4.605095000000 11.906886000000 8.570693000000
|  9> H 5.190507000000 11.466800000000 7.755212000000
| 10> H 3.710039000000 11.287900000000 8.665492000000
| 11> C 5.380588000000 11.699238000000 9.854755000000
| 12> H 5.516676000000 10.620831000000 9.971529000000
| 13> H 4.775081000000 12.028266000000 10.704389000000
| 14> C 6.750721000000 12.355805000000 9.863295000000
| 15> H 6.712143000000 13.353176000000 10.302544000000
| 16> H 7.087132000000 12.482854000000 8.837069000000
| 17> N 7.801394000000 11.584780000000 10.503722000000
| 18> H 8.520358000000 11.224111000000 9.867439000000
| 19> C 8.105987000000 11.636393000000 11.782797000000
| 20> N 7.220458000000 12.116611000000 12.672554000000
| 21> H 6.242412000000 11.998926000000 12.485304000000
| 22> H 7.523348000000 12.086887000000 13.639547000000
| 23> N 9.292053000000 11.256909000000 12.216979000000
| 24> H 9.479849000000 11.335825000000 13.210993000000
| 25> H 9.990700000000 10.886266000000 11.583156000000
| 26> C 12.858063000000 10.838447000000 9.176954000000
| 27> H 13.539520000000 10.651479000000 9.991436000000
| 28> H 13.225067000000 11.327244000000 8.287276000000
| 29> C 11.579931000000 10.502996000000 9.255571000000
| 30> C 10.619130000000 10.894485000000 8.164412000000
| 31> O 11.075613000000 11.043303000000 7.004633000000
| 32> O 9.424143000000 11.083035000000 8.458443000000
| 33> O 11.032207000000 9.919997000000 10.363050000000
| 34> C 11.233455000000 8.483825000000 10.574462000000
| 35> H 10.764467000000 8.310230000000 11.540306000000
| 36> C 12.702308000000 8.239668000000 10.641575000000
| 37> H 13.232769000000 8.657130000000 11.485180000000
| 38> C 13.381706000000 7.692492000000 9.637747000000
| 39> C 12.654999000000 7.156452000000 8.483143000000
| 40> H 13.249903000000 6.754456000000 7.673199000000
| 41> C 11.325520000000 7.157111000000 8.425029000000
| 42> H 10.814299000000 6.743059000000 7.564186000000
| 43> C 10.455286000000 7.670831000000 9.530873000000
| 44> H 9.714263000000 8.357990000000 9.110074000000
| 45> O 9.794085000000 6.569231000000 10.104579000000
| 46> H 9.037608000000 6.890131000000 10.693839000000
| 47> C 14.898536000000 7.779900000000 9.575956000000
| 48> O 15.512356000000 8.187599000000 10.600813000000
| 49> O 15.431911000000 7.503926000000 8.492276000000
| 50> *
| 51> 
| 52>                          ****END OF INPUT****
================================================================================

                       ****************************
                       * Single Point Calculation *
                       ****************************

---------------------------------
CARTESIAN COORDINATES (ANGSTROEM)
---------------------------------
  H      4.322955   12.903582    8.265089
  C      4.605095   11.906886    8.570693
  H      5.190507   11.466800    7.755212
  H      3.710039   11.287900    8.665492
  C      5.380588   11.699238    9.854755
  H      5.516676   10.620831    9.971529
  H      4.775081   12.028266   10.704389
  C      6.750721   12.355805    9.863295
  H      6.712143   13.353176   10.302544
  H      7.087132   12.482854    8.837069
  N      7.801394   11.584780   10.503722
  H      8.520358   11.224111    9.867439
  C      8.105987   11.636393   11.782797
  N      7.220458   12.116611   12.672554
  H      6.242412   11.998926   12.485304
  H      7.523348   12.086887   13.639547
  N      9.292053   11.256909   12.216979
  H      9.479849   11.335825   13.210993
  H      9.990700   10.886266   11.583156
  C     12.858063   10.838447    9.176954
  H     13.539520   10.651479    9.991436
  H     13.225067   11.327244    8.287276
  C     11.579931   10.502996    9.255571
  C     10.619130   10.894485    8.164412
  O     11.075613   11.043303    7.004633
  O      9.424143   11.083035    8.458443
  O     11.032207    9.919997   10.363050
  C     11.233455    8.483825   10.574462
  H     10.764467    8.310230   11.540306
  C     12.702308    8.239668   10.641575
  H     13.232769    8.657130   11.485180
  C     13.381706    7.692492    9.637747
  C     12.654999    7.156452    8.483143
  H     13.249903    6.754456    7.673199
  C     11.325520    7.157111    8.425029
  H     10.814299    6.743059    7.564186
  C     10.455286    7.670831    9.530873
  H      9.714263    8.357990    9.110074
  O      9.794085    6.569231   10.104579
  H      9.037608    6.890131   10.693839
  C     14.898536    7.779900    9.575956
  O     15.512356    8.187599   10.600813
  O     15.431911    7.503926    8.492276

----------------------------
CARTESIAN COORDINATES (A.U.)
----------------------------
  NO LB      ZA    FRAG     MASS         X           Y           Z
   0 H     1.0000    0     1.008    8.169201   24.384236   15.618754
   1 C     6.0000    0    12.011    8.702368   22.500754   16.196263
   2 H     1.0000    0     1.008    9.808637   21.669112   14.655227
   3 H     1.0000    0     1.008    7.010958   21.331040   16.375407
   4 C     6.0000    0    12.011   10.167838   22.108356   18.622788
   5 H     1.0000    0     1.008   10.425007   20.070462   18.843459
   6 H     1.0000    0     1.008    9.023595   22.730129   20.228364
   7 C     6.0000    0    12.011   12.757014   23.349088   18.638926
   8 H     1.0000    0     1.008   12.684112   25.233846   19.468987
   9 H     1.0000    0     1.008   13.392739   23.589175   16.699640
  10 N     7.0000    0    14.007   14.742498   21.892062   19.849158
  11 H     1.0000    0     1.008   16.101143   21.210496   18.646757
  12 C     6.0000    0    12.011   15.318095   21.989596   22.266259
  13 N     7.0000    0    14.007   13.644688   22.897076   23.947656
  14 H     1.0000    0     1.008   11.796449   22.674684   23.593805
  15 H     1.0000    0     1.008   14.217067   22.840906   25.775008
  16 N     7.0000    0    14.007   17.559435   21.272475   23.086744
  17 H     1.0000    0     1.008   17.914318   21.421605   24.965159
  18 H     1.0000    0     1.008   18.879687   20.572061   21.888993
  19 C     6.0000    0    12.011   24.298218   20.481697   17.341930
  20 H     1.0000    0     1.008   25.585985   20.128378   18.881078
  21 H     1.0000    0     1.008   24.991755   21.405389   15.660682
  22 C     6.0000    0    12.011   21.882898   19.847786   17.490494
  23 C     6.0000    0    12.011   20.067247   20.587593   15.428503
  24 O     8.0000    0    15.999   20.929875   20.868818   13.236838
  25 O     8.0000    0    15.999   17.809049   20.943901   15.984141
  26 O     8.0000    0    15.999   20.847850   18.746078   19.583326
  27 C     6.0000    0    12.011   21.228153   16.032106   19.982837
  28 H     1.0000    0     1.008   20.341895   15.704059   21.808018
  29 C     6.0000    0    12.011   24.003883   15.570716   20.109662
  30 H     1.0000    0     1.008   25.006309   16.359605   21.703845
  31 C     6.0000    0    12.011   25.287760   14.536703   18.212702
  32 C     6.0000    0    12.011   23.914482   13.523734   16.030817
  33 H     1.0000    0     1.008   25.038688   12.764072   14.500245
  34 C     6.0000    0    12.011   21.402131   13.524980   15.920997
  35 H     1.0000    0     1.008   20.436063   12.742535   14.294240
  36 C     6.0000    0    12.011   19.757627   14.495770   18.010740
  37 H     1.0000    0     1.008   18.357297   15.794312   17.215545
  38 O     8.0000    0    15.999   18.508138   12.414048   19.094887
  39 H     1.0000    0     1.008   17.078604   13.020461   20.208427
  40 C     6.0000    0    12.011   28.154153   14.701880   18.095934
  41 O     8.0000    0    15.999   29.314105   15.472320   20.032633
  42 O     8.0000    0    15.999   29.162086   14.180365   16.048076

--------------------------------
INTERNAL COORDINATES (ANGSTROEM)
--------------------------------
 H      0   0   0     0.000000000000     0.00000000     0.00000000
 C      1   0   0     1.080000000000     0.00000000     0.00000000
 H      2   1   0     1.096080361334   107.42998296     0.00000000
 H      2   1   3     1.092362468109   109.47792198   245.39155834
 C      2   1   3     1.514371917594   120.01674062   123.18190752
 H      5   2   1     1.093214420171   106.83281634   177.95030346
 H      5   2   1     1.093972616563   109.50303309    63.08971925
 C      5   2   1     1.519347753076   114.03589174   297.51937404
 H      8   5   2     1.090493859554   111.44431169    93.31151372
 H      8   5   2     1.087406829295   108.91540148   336.09267348
 N      8   5   2     1.452081280743   115.18393253   218.81382366
 H     11   8   5     1.025596127599   114.85593484   111.26858626
 C     11   8   5     1.315854723381   125.12596254   271.05886390
 N     13  11   8     1.344038115685   120.33147419    19.59868001
 H     14  13  11     1.002739397770   118.49469105    30.61475794
 H     14  13  11     1.013756050697   115.09599921   177.74149865
 N     13  11   8     1.318815632200   121.12530192   201.52844306
 H     17  13  11     1.014671821264   117.81315544   178.75787248
 H     17  13  11     1.013516383384   121.28441586   357.93166695
 C     19  17  13     3.743509756276   159.16916884    89.16593703
 H     20  19  17     1.078295694231    90.04424271    94.18627496
 H     20  19  17     1.079417151480   141.66738212   312.47424601
 C     20  19  17     1.323755799048    39.24088540   239.60176822
 C     23  20  19     1.505666019409   120.47763096   132.24773827
 O     24  23  20     1.255233386767   117.92761379    27.79586710
 O     24  23  20     1.244989663262   118.73233838   209.37012803
 O     23  20  19     1.366162197405   122.91455860   319.17519151
 C     27  23  20     1.465532601081   118.69056651   280.68657195
 H     28  27  23     1.087630268292   103.02058414   176.11343258
 C     28  27  23     1.490518678523   107.59850735    58.74543592
 H     30  28  27     1.080431760913   117.10993649    66.64443241
 C     30  28  27     1.329907467068   122.46914549   255.44147092
 C     32  30  28     1.465794099546   119.45586523   352.37669052
 H     33  32  30     1.082368161195   116.92141983   177.75490249
 C     33  32  30     1.330748692548   121.97314987   357.62885162
 H     35  33  32     1.083437418679   120.39174900   180.75999307
 C     35  33  32     1.498034180348   123.25016997   358.63147136
 H     37  35  33     1.094702871199   108.94948396   130.65538402
 O     37  35  33     1.407070679403   107.78738738   249.12296294
 H     39  37  35     1.011168437566   109.91948047   193.76064847
 C     32  30  28     1.520602359279   121.10550382   164.01168897
 O     41  32  30     1.262269914658   118.07647072    11.43788419
 O     41  32  30     1.238956367957   116.88327922   194.84805035

---------------------------
INTERNAL COORDINATES (A.U.)
---------------------------
 H      0   0   0     0.000000000000     0.00000000     0.00000000
 C      1   0   0     2.040904224635     0.00000000     0.00000000
 H      2   1   0     2.071291703690   107.42998296     0.00000000
 H      2   1   3     2.064265903700   109.47792198   245.39155834
 C      2   1   3     2.861748189154   120.01674062   123.18190752
 H      5   2   1     2.065875859776   106.83281634   177.95030346
 H      5   2   1     2.067308643313   109.50303309    63.08971925
 C      5   2   1     2.871151155503   114.03589174   297.51937404
 H      8   5   2     2.060734745281   111.44431169    93.31151372
 H      8   5   2     2.054901103524   108.91540148   336.09267348
 N      8   5   2     2.744035944797   115.18393253   218.81382366
 H     11   8   5     1.938095805172   114.85593484   111.26858626
 C     11   8   5     2.486605059216   125.12596254   271.05886390
 N     13  11   8     2.539863952196   120.33147419    19.59868001
 H     14  13  11     1.894902845479   118.49469105    30.61475794
 H     14  13  11     1.915721302423   115.09599921   177.74149865
 N     13  11   8     2.492200365993   121.12530192   201.52844306
 H     17  13  11     1.917451857997   117.81315544   178.75787248
 H     17  13  11     1.915268396837   121.28441586   357.93166695
 C     19  17  13     7.074208219024   159.16916884    89.16593703
 H     20  19  17     2.037683553483    90.04424271    94.18627496
 H     20  19  17     2.039802800554   141.66738212   312.47424601
 C     20  19  17     2.501535928391    39.24088540   239.60176822
 C     23  20  19     2.845296425834   120.47763096   132.24773827
 O     24  23  20     2.372047335144   117.92761379    27.79586710
 O     24  23  20     2.352689503129   118.73233838   209.37012803
 O     23  20  19     2.581672407611   122.91455860   319.17519151
 C     27  23  20     2.769455256377   118.69056651   280.68657195
 H     28  27  23     2.055323342035   103.02058414   176.11343258
 C     28  27  23     2.816672099903   107.59850735    58.74543592
 H     30  28  27     2.041720134516   117.10993649    66.64443241
 C     30  28  27     2.513160896216   122.46914549   255.44147092
 C     32  30  28     2.769949416860   119.45586523   352.37669052
 H     33  32  30     2.045379400734   116.92141983   177.75490249
 C     33  32  30     2.514750581989   121.97314987   357.62885162
 H     35  33  32     2.047400004546   120.39174900   180.75999307
 C     35  33  32     2.830874340112   123.25016997   358.63147136
 H     37  35  33     2.068688624583   108.94948396   130.65538402
 O     37  35  33     2.658978235143   107.78738738   249.12296294
 H     39  37  35     1.910831422264   109.91948047   193.76064847
 C     32  30  28     2.873522017632   121.10550382   164.01168897
 O     41  32  30     2.385344445791   118.07647072    11.43788419
 O     41  32  30     2.341288227316   116.88327922   194.84805035

---------------------
BASIS SET INFORMATION
---------------------
There are 4 groups of distinct atoms

 Group   1 Type H   : 5s2p1d contracted to 3s2p1d pattern {311/11/1}
 Group   2 Type C   : 18s5p2d1f contracted to 4s3p2d1f pattern {8811/311/11/1}
 Group   3 Type N   : 18s5p2d1f contracted to 4s3p2d1f pattern {8811/311/11/1}
 Group   4 Type O   : 18s5p2d1f contracted to 4s3p2d1f pattern {8811/311/11/1}

Atom   0H    basis set group =>   1
Atom   1C    basis set group =>   2
Atom   2H    basis set group =>   1
Atom   3H    basis set group =>   1
Atom   4C    basis set group =>   2
Atom   5H    basis set group =>   1
Atom   6H    basis set group =>   1
Atom   7C    basis set group =>   2
Atom   8H    basis set group =>   1
Atom   9H    basis set group =>   1
Atom  10N    basis set group =>   3
Atom  11H    basis set group =>   1
Atom  12C    basis set group =>   2
Atom  13N    basis set group =>   3
Atom  14H    basis set group =>   1
Atom  15H    basis set group =>   1
Atom  16N    basis set group =>   3
Atom  17H    basis set group =>   1
Atom  18H    basis set group =>   1
Atom  19C    basis set group =>   2
Atom  20H    basis set group =>   1
Atom  21H    basis set group =>   1
Atom  22C    basis set group =>   2
Atom  23C    basis set group =>   2
Atom  24O    basis set group =>   4
Atom  25O    basis set group =>   4
Atom  26O    basis set group =>   4
Atom  27C    basis set group =>   2
Atom  28H    basis set group =>   1
Atom  29C    basis set group =>   2
Atom  30H    basis set group =>   1
Atom  31C    basis set group =>   2
Atom  32C    basis set group =>   2
Atom  33H    basis set group =>   1
Atom  34C    basis set group =>   2
Atom  35H    basis set group =>   1
Atom  36C    basis set group =>   2
Atom  37H    basis set group =>   1
Atom  38O    basis set group =>   4
Atom  39H    basis set group =>   1
Atom  40C    basis set group =>   2
Atom  41O    basis set group =>   4
Atom  42O    basis set group =>   4
---------------------------------
AUXILIARY/C BASIS SET INFORMATION
---------------------------------
There are 4 groups of distinct atoms

 Group   1 Type H   : 4s3p2d1f contracted to 4s3p2d1f pattern {1111/111/11/1}
 Group   2 Type C   : 8s6p5d3f1g contracted to 8s6p5d3f1g pattern {11111111/111111/11111/111/1}
 Group   3 Type N   : 8s6p5d3f1g contracted to 8s6p5d3f1g pattern {11111111/111111/11111/111/1}
 Group   4 Type O   : 8s6p5d3f1g contracted to 8s6p5d3f1g pattern {11111111/111111/11111/111/1}

Atom   0H    basis set group =>   1
Atom   1C    basis set group =>   2
Atom   2H    basis set group =>   1
Atom   3H    basis set group =>   1
Atom   4C    basis set group =>   2
Atom   5H    basis set group =>   1
Atom   6H    basis set group =>   1
Atom   7C    basis set group =>   2
Atom   8H    basis set group =>   1
Atom   9H    basis set group =>   1
Atom  10N    basis set group =>   3
Atom  11H    basis set group =>   1
Atom  12C    basis set group =>   2
Atom  13N    basis set group =>   3
Atom  14H    basis set group =>   1
Atom  15H    basis set group =>   1
Atom  16N    basis set group =>   3
Atom  17H    basis set group =>   1
Atom  18H    basis set group =>   1
Atom  19C    basis set group =>   2
Atom  20H    basis set group =>   1
Atom  21H    basis set group =>   1
Atom  22C    basis set group =>   2
Atom  23C    basis set group =>   2
Atom  24O    basis set group =>   4
Atom  25O    basis set group =>   4
Atom  26O    basis set group =>   4
Atom  27C    basis set group =>   2
Atom  28H    basis set group =>   1
Atom  29C    basis set group =>   2
Atom  30H    basis set group =>   1
Atom  31C    basis set group =>   2
Atom  32C    basis set group =>   2
Atom  33H    basis set group =>   1
Atom  34C    basis set group =>   2
Atom  35H    basis set group =>   1
Atom  36C    basis set group =>   2
Atom  37H    basis set group =>   1
Atom  38O    basis set group =>   4
Atom  39H    basis set group =>   1
Atom  40C    basis set group =>   2
Atom  41O    basis set group =>   4
Atom  42O    basis set group =>   4


           ************************************************************
           *        Program running with 16 parallel MPI-processes    *
           *              working on a common directory               *
           ************************************************************
------------------------------------------------------------------------------
                           ORCA GTO INTEGRAL CALCULATION
------------------------------------------------------------------------------
------------------------------------------------------------------------------
                   ___                                                        
                  /   \      - P O W E R E D   B Y -                         
                 /     \                                                     
                 |  |  |   _    _      __       _____    __    __             
                 |  |  |  | |  | |    /  \     |  _  \  |  |  /  |          
                  \  \/   | |  | |   /    \    | | | |  |  | /  /          
                 / \  \   | |__| |  /  /\  \   | |_| |  |  |/  /          
                |  |  |   |  __  | /  /__\  \  |    /   |      \           
                |  |  |   | |  | | |   __   |  |    \   |  |\   \          
                \     /   | |  | | |  |  |  |  | |\  \  |  | \   \       
                 \___/    |_|  |_| |__|  |__|  |_| \__\ |__|  \__/        
                                                                              
                      - O R C A' S   B I G   F R I E N D -                    
                                      &                                       
                       - I N T E G R A L  F E E D E R -                       
                                                                              
 v1 FN, 2020, v2 2021                                                         
------------------------------------------------------------------------------


Reading SHARK input file input.SHARKINP.tmp ... ok
----------------------
SHARK INTEGRAL PACKAGE
----------------------

Number of atoms                             ...     43
Number of basis functions                   ...   1108
Number of shells                            ...    488
Maximum angular momentum                    ...      3
Integral batch strategy                     ... SHARK/LIBINT Hybrid
RI-J (if used) integral strategy            ... SPLIT-RIJ (Revised 2003 algorithm where possible)
Printlevel                                  ...      1
Contraction scheme used                     ... PARTIAL GENERAL contraction
Coulomb Range Separation                    ... NOT USED
Exchange Range Separation                   ... NOT USED
Finite Nucleus Model                        ... NOT USED
Auxiliary Coulomb fitting basis             ... NOT available
Auxiliary J/K fitting basis                 ... NOT available
Auxiliary Correlation fitting basis         ... AVAILABLE
   # of basis functions in Aux-C            ...   2463
   # of shells in Aux-C                     ...    729
   Maximum angular momentum in Aux-C        ...      4
Auxiliary 'external' fitting basis          ... NOT available
Integral threshold                          ...     2.500000e-11
Primitive cut-off                           ...     2.500000e-12
Primitive pair pre-selection threshold      ...     2.500000e-12

Calculating pre-screening integrals         ... done (  0.1 sec) Dimension = 488
Calculating pre-screening integrals (ORCA)  ... done (  0.2 sec) Dimension = 350
Organizing shell pair data                  ... done (  0.4 sec)
Shell pair information
Total number of shell pairs                 ...    119316
Shell pairs after pre-screening             ...     56745
Total number of primitive shell pairs       ...    165154
Primitive shell pairs kept                  ...     68875
          la=0 lb=0:  16653 shell pairs
          la=1 lb=0:  16744 shell pairs
          la=1 lb=1:   3924 shell pairs
          la=2 lb=0:   8664 shell pairs
          la=2 lb=1:   4234 shell pairs
          la=2 lb=2:   1157 shell pairs
          la=3 lb=0:   2961 shell pairs
          la=3 lb=1:   1463 shell pairs
          la=3 lb=2:    792 shell pairs
          la=3 lb=3:    153 shell pairs

Calculating one electron integrals          ... done (  0.1 sec)
Calculating RI/C V-Matrix + Cholesky decomp.... done (  0.4 sec)
Calculating Nuclear repulsion               ... done (  0.0 sec) ENN=   2011.778115536025 Eh

SHARK setup successfully completed in   1.7 seconds

Maximum memory used throughout the entire GTOINT-calculation: 79.5 MB


           ************************************************************
           *        Program running with 16 parallel MPI-processes    *
           *              working on a common directory               *
           ************************************************************
-------------------------------------------------------------------------------
                                 ORCA SCF
-------------------------------------------------------------------------------

------------
SCF SETTINGS
------------
Hamiltonian:
 Ab initio Hamiltonian  Method          .... Hartree-Fock(GTOs)


General Settings:
 Integral files         IntName         .... input
 Hartree-Fock type      HFTyp           .... RHF
 Total Charge           Charge          ....   -1
 Multiplicity           Mult            ....    1
 Number of Electrons    NEL             ....  174
 Basis Dimension        Dim             ....  970
 Nuclear Repulsion      ENuc            ....   2011.7781155360 Eh

Convergence Acceleration:
 DIIS                   CNVDIIS         .... on
   Start iteration      DIISMaxIt       ....    12
   Startup error        DIISStart       ....  0.200000
   # of expansion vecs  DIISMaxEq       ....     5
   Bias factor          DIISBfac        ....   1.050
   Max. coefficient     DIISMaxC        ....  10.000
 Trust-Rad. Augm. Hess. CNVTRAH         .... auto
   Auto Start mean grad. ratio tolernc. ....  1.125000
   Auto Start start iteration           ....    20
   Auto Start num. interpolation iter.  ....    10
   Max. Number of Micro iterations      ....    16
   Max. Number of Macro iterations      .... Maxiter - #DIIS iter
   Number of Davidson start vectors     ....     2
   Converg. threshold I  (grad. norm)   ....   1.000e-05
   Converg. threshold II (energy diff.) ....   1.000e-08
   Grad. Scal. Fac. for Micro threshold ....   0.100
   Minimum threshold for Micro iter.    ....   0.010
   NR start threshold (gradient norm)   ....   0.001
   Initial trust radius                 ....   0.400
   Minimum AH scaling param. (alpha)    ....   1.000
   Maximum AH scaling param. (alpha)    .... 1000.000
   Orbital update algorithm             .... Taylor
   White noise on init. David. guess    .... on
   Maximum white noise                  ....   0.010
   Quad. conv. algorithm                .... NR
 SOSCF                  CNVSOSCF        .... on
   Start iteration      SOSCFMaxIt      ....   150
   Startup grad/error   SOSCFStart      ....  0.003300
 Level Shifting         CNVShift        .... on
   Level shift para.    LevelShift      ....    0.2500
   Turn off err/grad.   ShiftErr        ....    0.0010
 Zerner damping         CNVZerner       .... off
 Static damping         CNVDamp         .... on
   Fraction old density DampFac         ....    0.7000
   Max. Damping (<1)    DampMax         ....    0.9800
   Min. Damping (>=0)   DampMin         ....    0.0000
   Turn off err/grad.   DampErr         ....    0.1000
 Fernandez-Rico         CNVRico         .... off

SCF Procedure:
 Maximum # iterations   MaxIter         ....   125
 SCF integral mode      SCFMode         .... Direct
   Integral package                     .... SHARK and LIBINT hybrid scheme
 Reset frequency        DirectResetFreq ....    20
 Integral Threshold     Thresh          ....  2.500e-11 Eh
 Primitive CutOff       TCut            ....  2.500e-12 Eh

Convergence Tolerance:
 Convergence Check Mode ConvCheckMode   .... Total+1el-Energy
 Convergence forced     ConvForced      .... 1
 Energy Change          TolE            ....  1.000e-08 Eh
 1-El. energy change                    ....  1.000e-05 Eh
 Orbital Gradient       TolG            ....  1.000e-05
 Orbital Rotation angle TolX            ....  1.000e-05
 DIIS Error             TolErr          ....  5.000e-07


Diagonalization of the overlap matrix:
Smallest eigenvalue                        ... 5.110e-05
Time for diagonalization                   ...    0.465 sec
Threshold for overlap eigenvalues          ... 1.000e-08
Number of eigenvalues below threshold      ... 0
Time for construction of square roots      ...    0.412 sec
Total time needed                          ...    0.881 sec

Time for model grid setup =    0.231 sec

------------------------------
INITIAL GUESS: MODEL POTENTIAL
------------------------------
Loading Hartree-Fock densities                     ... done
Calculating cut-offs                               ... done
Initializing the effective Hamiltonian             ... done
Setting up the integral package (SHARK)            ... done
Starting the Coulomb interaction                   ... done (   0.3 sec)
Reading the grid                                   ... done
Mapping shells                                     ... done
Starting the XC term evaluation                    ... done (   0.1 sec)
Transforming the Hamiltonian                       ... done (   0.6 sec)
Diagonalizing the Hamiltonian                      ... done (   0.5 sec)
Back transforming the eigenvectors                 ... done (   0.2 sec)
Now organizing SCF variables                       ... done
                      ------------------
                      INITIAL GUESS DONE (   2.1 sec)
                      ------------------
--------------
SCF ITERATIONS
--------------
ITER       Energy         Delta-E        Max-DP      RMS-DP      [F,P]     Damp
               ***  Starting incremental Fock matrix formation  ***
  0  -1153.5022013189   0.000000000000 0.17074758  0.00061543  0.3620541 0.7000
  1  -1153.9180585662  -0.415857247266 0.16881741  0.00053920  0.2173293 0.7000
                               ***Turning on DIIS***
  2  -1154.1660260400  -0.247967473833 0.09842168  0.00033498  0.1211395 0.7000
  3  -1156.7733378736  -2.607311833597 0.09523841  0.00054989  0.0834046 0.0000
  4  -1154.5797339505   2.193603923156 0.05299369  0.00014741  0.0092728 0.0000
  5  -1154.7057080731  -0.125974122629 0.01738843  0.00006210  0.0042476 0.0000
                      *** Initiating the SOSCF procedure ***
                           *** Shutting down DIIS ***
                      *** Re-Reading the Fockian *** 
                      *** Removing any level shift *** 
ITER      Energy       Delta-E        Grad      Rot      Max-DP    RMS-DP
  6  -1154.67634587   0.0293622071  0.001482  0.001482  0.007238  0.000029
               *** Restarting incremental Fock matrix formation ***
  7  -1154.68594780  -0.0096019318  0.000713  0.001361  0.003176  0.000016
  8  -1154.68597580  -0.0000279990  0.000289  0.001258  0.002091  0.000013
  9  -1154.68598444  -0.0000086426  0.000056  0.000097  0.000275  0.000003
 10  -1154.68598516  -0.0000007166  0.000029  0.000046  0.000087  0.000001
 11  -1154.68598522  -0.0000000656  0.000008  0.000027  0.000034  0.000000
 12  -1154.68598523  -0.0000000128  0.000005  0.000011  0.000016  0.000000
                  ***Gradient check signals convergence***
              ***Rediagonalizing the Fockian in SOSCF/NRSCF***

               *****************************************************
               *                     SUCCESS                       *
               *           SCF CONVERGED AFTER  13 CYCLES          *
               *****************************************************


----------------
TOTAL SCF ENERGY
----------------

Total Energy       :        -1154.68598524 Eh          -31420.60305 eV

Components:
Nuclear Repulsion  :         2011.77811554 Eh           54743.26562 eV
Electronic Energy  :        -3166.46410077 Eh          -86163.86867 eV
One Electron Energy:        -5603.52632365 Eh         -152479.70318 eV
Two Electron Energy:         2437.06222288 Eh           66315.83452 eV

Virial components:
Potential Energy   :        -2308.35895284 Eh          -62813.64049 eV
Kinetic Energy     :         1153.67296761 Eh           31393.03744 eV
Virial Ratio       :            2.00087808


---------------
SCF CONVERGENCE
---------------

  Last Energy change         ...   -1.4793e-09  Tolerance :   1.0000e-08
  Last MAX-Density change    ...    1.5804e-05  Tolerance :   1.0000e-07
  Last RMS-Density change    ...    7.7412e-08  Tolerance :   5.0000e-09
  Last Orbital Gradient      ...    1.3750e-06  Tolerance :   1.0000e-05
  Last Orbital Rotation      ...    4.2794e-06  Tolerance :   1.0000e-05

             **** THE GBW FILE WAS UPDATED (input.gbw) ****
             **** DENSITY input.scfp WAS UPDATED ****
             **** ENERGY FILE WAS UPDATED (input.en.tmp) ****
             **** THE GBW FILE WAS UPDATED (input.gbw) ****
             **** DENSITY input.scfp WAS UPDATED ****
----------------
ORBITAL ENERGIES
----------------

  NO   OCC          E(Eh)            E(eV) 
   0   2.0000     -20.462538      -556.8140 
   1   2.0000     -20.461447      -556.7843 
   2   2.0000     -20.352859      -553.8294 
   3   2.0000     -20.321448      -552.9747 
   4   2.0000     -20.291396      -552.1570 
   5   2.0000     -20.281932      -551.8994 
   6   2.0000     -15.585994      -424.1165 
   7   2.0000     -15.560848      -423.4322 
   8   2.0000     -15.537675      -422.8016 
   9   2.0000     -11.364558      -309.2453 
  10   2.0000     -11.221427      -305.3505 
  11   2.0000     -11.191010      -304.5229 
  12   2.0000     -11.180716      -304.2427 
  13   2.0000     -11.179802      -304.2179 
  14   2.0000     -11.175332      -304.0962 
  15   2.0000     -11.168759      -303.9174 
  16   2.0000     -11.143876      -303.2403 
  17   2.0000     -11.137271      -303.0606 
  18   2.0000     -11.092334      -301.8377 
  19   2.0000     -11.090419      -301.7856 
  20   2.0000     -11.085349      -301.6477 
  21   2.0000     -11.084096      -301.6136 
  22   2.0000     -11.082701      -301.5756 
  23   2.0000      -1.328095       -36.1393 
  24   2.0000      -1.289051       -35.0769 
  25   2.0000      -1.257313       -34.2132 
  26   2.0000      -1.228639       -33.4330 
  27   2.0000      -1.186668       -32.2909 
  28   2.0000      -1.178166       -32.0595 
  29   2.0000      -1.176653       -32.0184 
  30   2.0000      -1.113522       -30.3005 
  31   2.0000      -1.065201       -28.9856 
  32   2.0000      -1.025773       -27.9127 
  33   2.0000      -0.993921       -27.0460 
  34   2.0000      -0.916715       -24.9451 
  35   2.0000      -0.910153       -24.7665 
  36   2.0000      -0.883469       -24.0404 
  37   2.0000      -0.859084       -23.3769 
  38   2.0000      -0.828025       -22.5317 
  39   2.0000      -0.788117       -21.4458 
  40   2.0000      -0.757100       -20.6017 
  41   2.0000      -0.744422       -20.2568 
  42   2.0000      -0.719557       -19.5802 
  43   2.0000      -0.696711       -18.9585 
  44   2.0000      -0.692872       -18.8540 
  45   2.0000      -0.661387       -17.9972 
  46   2.0000      -0.645217       -17.5572 
  47   2.0000      -0.614352       -16.7174 
  48   2.0000      -0.607698       -16.5363 
  49   2.0000      -0.598629       -16.2895 
  50   2.0000      -0.592472       -16.1220 
  51   2.0000      -0.580457       -15.7951 
  52   2.0000      -0.564747       -15.3675 
  53   2.0000      -0.555981       -15.1290 
  54   2.0000      -0.543105       -14.7786 
  55   2.0000      -0.540915       -14.7190 
  56   2.0000      -0.522113       -14.2074 
  57   2.0000      -0.510859       -13.9012 
  58   2.0000      -0.496389       -13.5074 
  59   2.0000      -0.488190       -13.2843 
  60   2.0000      -0.472900       -12.8683 
  61   2.0000      -0.471834       -12.8392 
  62   2.0000      -0.461762       -12.5652 
  63   2.0000      -0.457576       -12.4513 
  64   2.0000      -0.443802       -12.0765 
  65   2.0000      -0.438604       -11.9350 
  66   2.0000      -0.437917       -11.9163 
  67   2.0000      -0.432408       -11.7664 
  68   2.0000      -0.421990       -11.4829 
  69   2.0000      -0.416855       -11.3432 
  70   2.0000      -0.410673       -11.1750 
  71   2.0000      -0.401663       -10.9298 
  72   2.0000      -0.384986       -10.4760 
  73   2.0000      -0.375562       -10.2195 
  74   2.0000      -0.368479       -10.0268 
  75   2.0000      -0.359480        -9.7820 
  76   2.0000      -0.347325        -9.4512 
  77   2.0000      -0.315441        -8.5836 
  78   2.0000      -0.286253        -7.7893 
  79   2.0000      -0.273668        -7.4469 
  80   2.0000      -0.253845        -6.9075 
  81   2.0000      -0.244166        -6.6441 
  82   2.0000      -0.216593        -5.8938 
  83   2.0000      -0.214410        -5.8344 
  84   2.0000      -0.206370        -5.6156 
  85   2.0000      -0.193457        -5.2642 
  86   2.0000      -0.177470        -4.8292 
  87   0.0000       0.137379         3.7383 
  88   0.0000       0.167359         4.5541 
  89   0.0000       0.194636         5.2963 
  90   0.0000       0.204545         5.5659 
  91   0.0000       0.214913         5.8481 
  92   0.0000       0.218642         5.9495 
  93   0.0000       0.224672         6.1136 
  94   0.0000       0.237804         6.4710 
  95   0.0000       0.249903         6.8002 
  96   0.0000       0.262725         7.1491 
  97   0.0000       0.264227         7.1900 
  98   0.0000       0.274479         7.4690 
  99   0.0000       0.275816         7.5053 
 100   0.0000       0.285102         7.7580 
 101   0.0000       0.290928         7.9165 
 102   0.0000       0.296144         8.0585 
 103   0.0000       0.317749         8.6464 
 104   0.0000       0.323594         8.8054 
 105   0.0000       0.339564         9.2400 
 106   0.0000       0.348349         9.4791 
 107   0.0000       0.351578         9.5669 
 108   0.0000       0.362792         9.8721 
 109   0.0000       0.366954         9.9853 
 110   0.0000       0.371554        10.1105 
 111   0.0000       0.380290        10.3482 
 112   0.0000       0.389661        10.6032 
 113   0.0000       0.393294        10.7021 
 114   0.0000       0.409305        11.1378 
 115   0.0000       0.418804        11.3962 
 116   0.0000       0.427219        11.6252 
 117   0.0000       0.427990        11.6462 
 118   0.0000       0.431426        11.7397 
 119   0.0000       0.452495        12.3130 
 120   0.0000       0.455648        12.3988 
 121   0.0000       0.455741        12.4013 
 122   0.0000       0.466623        12.6975 
 123   0.0000       0.477364        12.9897 
 124   0.0000       0.486720        13.2443 
 125   0.0000       0.493169        13.4198 
 126   0.0000       0.498187        13.5564 
 127   0.0000       0.504090        13.7170 
 128   0.0000       0.507935        13.8216 
 129   0.0000       0.514177        13.9915 
 130   0.0000       0.521840        14.2000 
 131   0.0000       0.533572        14.5192 
 132   0.0000       0.536369        14.5953 
 133   0.0000       0.547261        14.8917 
 134   0.0000       0.552492        15.0341 
 135   0.0000       0.556672        15.1478 
 136   0.0000       0.560985        15.2652 
 137   0.0000       0.563963        15.3462 
 138   0.0000       0.570165        15.5150 
 139   0.0000       0.574286        15.6271 
 140   0.0000       0.581800        15.8316 
 141   0.0000       0.590103        16.0575 
 142   0.0000       0.595548        16.2057 
 143   0.0000       0.596758        16.2386 
 144   0.0000       0.607689        16.5360 
 145   0.0000       0.614749        16.7282 
 146   0.0000       0.621629        16.9154 
 147   0.0000       0.623995        16.9798 
 148   0.0000       0.626340        17.0436 
 149   0.0000       0.628990        17.1157 
 150   0.0000       0.632448        17.2098 
 151   0.0000       0.635698        17.2982 
 152   0.0000       0.641298        17.4506 
 153   0.0000       0.646509        17.5924 
 154   0.0000       0.651603        17.7310 
 155   0.0000       0.660145        17.9634 
 156   0.0000       0.665841        18.1185 
 157   0.0000       0.675933        18.3931 
 158   0.0000       0.678708        18.4686 
 159   0.0000       0.683158        18.5897 
 160   0.0000       0.686751        18.6874 
 161   0.0000       0.693028        18.8583 
 162   0.0000       0.695359        18.9217 
 163   0.0000       0.700058        19.0495 
 164   0.0000       0.703459        19.1421 
 165   0.0000       0.706258        19.2183 
 166   0.0000       0.709951        19.3188 
 167   0.0000       0.714834        19.4516 
 168   0.0000       0.723182        19.6788 
 169   0.0000       0.724459        19.7135 
 170   0.0000       0.729436        19.8490 
 171   0.0000       0.733082        19.9482 
 172   0.0000       0.737165        20.0593 
 173   0.0000       0.745158        20.2768 
 174   0.0000       0.747826        20.3494 
 175   0.0000       0.754509        20.5312 
 176   0.0000       0.758213        20.6320 
 177   0.0000       0.763804        20.7842 
 178   0.0000       0.766488        20.8572 
 179   0.0000       0.771322        20.9887 
 180   0.0000       0.775646        21.1064 
 181   0.0000       0.779693        21.2165 
 182   0.0000       0.782695        21.2982 
 183   0.0000       0.790477        21.5100 
 184   0.0000       0.792855        21.5747 
 185   0.0000       0.800510        21.7830 
 186   0.0000       0.803494        21.8642 
 187   0.0000       0.819111        22.2892 
 188   0.0000       0.820904        22.3379 
 189   0.0000       0.825049        22.4507 
 190   0.0000       0.830116        22.5886 
 191   0.0000       0.841028        22.8855 
 192   0.0000       0.847673        23.0664 
 193   0.0000       0.852220        23.1901 
 194   0.0000       0.860900        23.4263 
 195   0.0000       0.869705        23.6659 
 196   0.0000       0.871954        23.7271 
 197   0.0000       0.874470        23.7955 
 198   0.0000       0.889159        24.1953 
 199   0.0000       0.896443        24.3934 
 200   0.0000       0.906665        24.6716 
 201   0.0000       0.908074        24.7099 
 202   0.0000       0.914610        24.8878 
 203   0.0000       0.917781        24.9741 
 204   0.0000       0.925743        25.1908 
 205   0.0000       0.927019        25.2255 
 206   0.0000       0.941844        25.6289 
 207   0.0000       0.951060        25.8797 
 208   0.0000       0.955446        25.9990 
 209   0.0000       0.959321        26.1045 
 210   0.0000       0.963951        26.2304 
 211   0.0000       0.972635        26.4667 
 212   0.0000       0.977591        26.6016 
 213   0.0000       0.981558        26.7096 
 214   0.0000       0.986216        26.8363 
 215   0.0000       0.994756        27.0687 
 216   0.0000       0.996634        27.1198 
 217   0.0000       1.001080        27.2408 
 218   0.0000       1.009136        27.4600 
 219   0.0000       1.014819        27.6146 
 220   0.0000       1.021582        27.7987 
 221   0.0000       1.026805        27.9408 
 222   0.0000       1.030378        28.0380 
 223   0.0000       1.033350        28.1189 
 224   0.0000       1.036051        28.1924 
 225   0.0000       1.042909        28.3790 
 226   0.0000       1.048254        28.5244 
 227   0.0000       1.051549        28.6141 
 228   0.0000       1.060923        28.8692 
 229   0.0000       1.063808        28.9477 
 230   0.0000       1.069657        29.1068 
 231   0.0000       1.072745        29.1909 
 232   0.0000       1.079699        29.3801 
 233   0.0000       1.086886        29.5757 
 234   0.0000       1.090657        29.6783 
 235   0.0000       1.096214        29.8295 
 236   0.0000       1.104403        30.0523 
 237   0.0000       1.114035        30.3144 
 238   0.0000       1.120180        30.4816 
 239   0.0000       1.121186        30.5090 
 240   0.0000       1.135862        30.9084 
 241   0.0000       1.140325        31.0298 
 242   0.0000       1.145132        31.1606 
 243   0.0000       1.150568        31.3086 
 244   0.0000       1.159279        31.5456 
 245   0.0000       1.160086        31.5675 
 246   0.0000       1.171324        31.8733 
 247   0.0000       1.181220        32.1426 
 248   0.0000       1.185993        32.2725 
 249   0.0000       1.192542        32.4507 
 250   0.0000       1.202919        32.7331 
 251   0.0000       1.211079        32.9551 
 252   0.0000       1.220961        33.2240 
 253   0.0000       1.222003        33.2524 
 254   0.0000       1.229363        33.4527 
 255   0.0000       1.238183        33.6927 
 256   0.0000       1.240572        33.7577 
 257   0.0000       1.247345        33.9420 
 258   0.0000       1.256861        34.2009 
 259   0.0000       1.263084        34.3703 
 260   0.0000       1.267994        34.5039 
 261   0.0000       1.274393        34.6780 
 262   0.0000       1.278558        34.7913 
 263   0.0000       1.290112        35.1057 
 264   0.0000       1.297429        35.3048 
 265   0.0000       1.301049        35.4033 
 266   0.0000       1.303753        35.4769 
 267   0.0000       1.312720        35.7209 
 268   0.0000       1.322492        35.9868 
 269   0.0000       1.325732        36.0750 
 270   0.0000       1.331729        36.2382 
 271   0.0000       1.336485        36.3676 
 272   0.0000       1.347736        36.6738 
 273   0.0000       1.351551        36.7776 
 274   0.0000       1.356264        36.9058 
 275   0.0000       1.357107        36.9288 
 276   0.0000       1.359183        36.9853 
 277   0.0000       1.366872        37.1945 
 278   0.0000       1.377237        37.4765 
 279   0.0000       1.382166        37.6107 
 280   0.0000       1.394583        37.9485 
 281   0.0000       1.399486        38.0820 
 282   0.0000       1.399924        38.0939 
 283   0.0000       1.408762        38.3344 
 284   0.0000       1.417405        38.5695 
 285   0.0000       1.418938        38.6113 
 286   0.0000       1.434506        39.0349 
 287   0.0000       1.443735        39.2860 
 288   0.0000       1.452564        39.5263 
 289   0.0000       1.453749        39.5585 
 290   0.0000       1.459155        39.7056 
 291   0.0000       1.467228        39.9253 
 292   0.0000       1.472888        40.0793 
 293   0.0000       1.476530        40.1784 
 294   0.0000       1.477738        40.2113 
 295   0.0000       1.487525        40.4776 
 296   0.0000       1.492214        40.6052 
 297   0.0000       1.499077        40.7920 
 298   0.0000       1.501875        40.8681 
 299   0.0000       1.505906        40.9778 
 300   0.0000       1.510880        41.1131 
 301   0.0000       1.519067        41.3359 
 302   0.0000       1.527136        41.5555 
 303   0.0000       1.533856        41.7383 
 304   0.0000       1.536236        41.8031 
 305   0.0000       1.548733        42.1432 
 306   0.0000       1.552594        42.2482 
 307   0.0000       1.558030        42.3962 
 308   0.0000       1.565952        42.6117 
 309   0.0000       1.571983        42.7758 
 310   0.0000       1.580717        43.0135 
 311   0.0000       1.583587        43.0916 
 312   0.0000       1.589809        43.2609 
 313   0.0000       1.592766        43.3414 
 314   0.0000       1.607037        43.7297 
 315   0.0000       1.607845        43.7517 
 316   0.0000       1.619468        44.0680 
 317   0.0000       1.626457        44.2581 
 318   0.0000       1.637190        44.5502 
 319   0.0000       1.642238        44.6876 
 320   0.0000       1.649753        44.8920 
 321   0.0000       1.651235        44.9324 
 322   0.0000       1.659026        45.1444 
 323   0.0000       1.663648        45.2702 
 324   0.0000       1.668325        45.3974 
 325   0.0000       1.672316        45.5060 
 326   0.0000       1.685828        45.8737 
 327   0.0000       1.689992        45.9870 
 328   0.0000       1.693215        46.0747 
 329   0.0000       1.697443        46.1898 
 330   0.0000       1.701608        46.3031 
 331   0.0000       1.712024        46.5865 
 332   0.0000       1.716764        46.7155 
 333   0.0000       1.723035        46.8862 
 334   0.0000       1.731432        47.1146 
 335   0.0000       1.738167        47.2979 
 336   0.0000       1.740547        47.3627 
 337   0.0000       1.747938        47.5638 
 338   0.0000       1.749742        47.6129 
 339   0.0000       1.761920        47.9443 
 340   0.0000       1.776411        48.3386 
 341   0.0000       1.787912        48.6516 
 342   0.0000       1.796684        48.8902 
 343   0.0000       1.801655        49.0255 
 344   0.0000       1.815082        49.3909 
 345   0.0000       1.829162        49.7740 
 346   0.0000       1.832395        49.8620 
 347   0.0000       1.838520        50.0287 
 348   0.0000       1.850700        50.3601 
 349   0.0000       1.855088        50.4795 
 350   0.0000       1.860942        50.6388 
 351   0.0000       1.871049        50.9138 
 352   0.0000       1.874362        51.0040 
 353   0.0000       1.883352        51.2486 
 354   0.0000       1.898233        51.6535 
 355   0.0000       1.899765        51.6952 
 356   0.0000       1.925814        52.4041 
 357   0.0000       1.931171        52.5498 
 358   0.0000       1.938224        52.7417 
 359   0.0000       1.946010        52.9536 
 360   0.0000       1.959681        53.3256 
 361   0.0000       1.962948        53.4145 
 362   0.0000       1.974624        53.7323 
 363   0.0000       1.986710        54.0611 
 364   0.0000       1.992421        54.2165 
 365   0.0000       2.000983        54.4495 
 366   0.0000       2.008872        54.6642 
 367   0.0000       2.018326        54.9214 
 368   0.0000       2.033148        55.3248 
 369   0.0000       2.036319        55.4111 
 370   0.0000       2.043076        55.5949 
 371   0.0000       2.061325        56.0915 
 372   0.0000       2.076856        56.5141 
 373   0.0000       2.082296        56.6622 
 374   0.0000       2.093641        56.9709 
 375   0.0000       2.107111        57.3374 
 376   0.0000       2.118945        57.6594 
 377   0.0000       2.126746        57.8717 
 378   0.0000       2.135309        58.1047 
 379   0.0000       2.146896        58.4200 
 380   0.0000       2.154100        58.6160 
 381   0.0000       2.157220        58.7009 
 382   0.0000       2.171582        59.0918 
 383   0.0000       2.175977        59.2113 
 384   0.0000       2.181708        59.3673 
 385   0.0000       2.192877        59.6712 
 386   0.0000       2.205736        60.0211 
 387   0.0000       2.216680        60.3189 
 388   0.0000       2.229710        60.6735 
 389   0.0000       2.232244        60.7424 
 390   0.0000       2.249406        61.2094 
 391   0.0000       2.269722        61.7623 
 392   0.0000       2.280312        62.0504 
 393   0.0000       2.307685        62.7953 
 394   0.0000       2.347559        63.8803 
 395   0.0000       2.364746        64.3480 
 396   0.0000       2.378192        64.7139 
 397   0.0000       2.409462        65.5648 
 398   0.0000       2.423057        65.9347 
 399   0.0000       2.426582        66.0307 
 400   0.0000       2.454966        66.8030 
 401   0.0000       2.456585        66.8471 
 402   0.0000       2.476979        67.4020 
 403   0.0000       2.482653        67.5564 
 404   0.0000       2.516732        68.4838 
 405   0.0000       2.523676        68.6727 
 406   0.0000       2.534359        68.9634 
 407   0.0000       2.550813        69.4111 
 408   0.0000       2.554101        69.5006 
 409   0.0000       2.568557        69.8940 
 410   0.0000       2.575214        70.0751 
 411   0.0000       2.588610        70.4397 
 412   0.0000       2.594601        70.6027 
 413   0.0000       2.598979        70.7218 
 414   0.0000       2.609401        71.0054 
 415   0.0000       2.621380        71.3314 
 416   0.0000       2.632965        71.6466 
 417   0.0000       2.658927        72.3531 
 418   0.0000       2.661206        72.4151 
 419   0.0000       2.666707        72.5648 
 420   0.0000       2.673343        72.7454 
 421   0.0000       2.678983        72.8988 
 422   0.0000       2.684867        73.0589 
 423   0.0000       2.705593        73.6229 
 424   0.0000       2.717646        73.9509 
 425   0.0000       2.728822        74.2550 
 426   0.0000       2.742045        74.6148 
 427   0.0000       2.746191        74.7277 
 428   0.0000       2.748938        74.8024 
 429   0.0000       2.755006        74.9675 
 430   0.0000       2.776592        75.5549 
 431   0.0000       2.776850        75.5619 
 432   0.0000       2.790935        75.9452 
 433   0.0000       2.810930        76.4893 
 434   0.0000       2.818075        76.6837 
 435   0.0000       2.829500        76.9946 
 436   0.0000       2.831104        77.0382 
 437   0.0000       2.836056        77.1730 
 438   0.0000       2.841925        77.3327 
 439   0.0000       2.850515        77.5665 
 440   0.0000       2.862817        77.9012 
 441   0.0000       2.870043        78.0978 
 442   0.0000       2.881262        78.4031 
 443   0.0000       2.884152        78.4818 
 444   0.0000       2.890549        78.6558 
 445   0.0000       2.902100        78.9702 
 446   0.0000       2.916785        79.3698 
 447   0.0000       2.921869        79.5081 
 448   0.0000       2.935432        79.8772 
 449   0.0000       2.937195        79.9251 
 450   0.0000       2.958584        80.5072 
 451   0.0000       2.962454        80.6125 
 452   0.0000       2.972011        80.8725 
 453   0.0000       2.988339        81.3168 
 454   0.0000       2.993376        81.4539 
 455   0.0000       3.007149        81.8287 
 456   0.0000       3.013735        82.0079 
 457   0.0000       3.027605        82.3853 
 458   0.0000       3.033330        82.5411 
 459   0.0000       3.037399        82.6518 
 460   0.0000       3.045494        82.8721 
 461   0.0000       3.051932        83.0473 
 462   0.0000       3.062225        83.3274 
 463   0.0000       3.064450        83.3879 
 464   0.0000       3.068926        83.5097 
 465   0.0000       3.071102        83.5689 
 466   0.0000       3.083499        83.9063 
 467   0.0000       3.089882        84.0800 
 468   0.0000       3.104645        84.4817 
 469   0.0000       3.108004        84.5731 
 470   0.0000       3.114532        84.7507 
 471   0.0000       3.123673        84.9995 
 472   0.0000       3.133200        85.2587 
 473   0.0000       3.142077        85.5003 
 474   0.0000       3.145573        85.5954 
 475   0.0000       3.157167        85.9109 
 476   0.0000       3.167602        86.1948 
 477   0.0000       3.171475        86.3002 
 478   0.0000       3.177354        86.4602 
 479   0.0000       3.184497        86.6546 
 480   0.0000       3.189060        86.7787 
 481   0.0000       3.194293        86.9211 
 482   0.0000       3.209156        87.3256 
 483   0.0000       3.210131        87.3521 
 484   0.0000       3.220527        87.6350 
 485   0.0000       3.224225        87.7356 
 486   0.0000       3.235077        88.0309 
 487   0.0000       3.244157        88.2780 
 488   0.0000       3.246115        88.3313 
 489   0.0000       3.249893        88.4341 
 490   0.0000       3.260578        88.7248 
 491   0.0000       3.265723        88.8648 
 492   0.0000       3.272153        89.0398 
 493   0.0000       3.277985        89.1985 
 494   0.0000       3.285924        89.4145 
 495   0.0000       3.289950        89.5241 
 496   0.0000       3.294537        89.6489 
 497   0.0000       3.298732        89.7631 
 498   0.0000       3.310856        90.0930 
 499   0.0000       3.319961        90.3407 
 500   0.0000       3.325302        90.4861 
 501   0.0000       3.331088        90.6435 
 502   0.0000       3.337551        90.8194 
 503   0.0000       3.346646        91.0669 
 504   0.0000       3.348571        91.1192 
 505   0.0000       3.354673        91.2853 
 506   0.0000       3.358000        91.3758 
 507   0.0000       3.364284        91.5468 
 508   0.0000       3.370751        91.7228 
 509   0.0000       3.378164        91.9245 
 510   0.0000       3.390917        92.2715 
 511   0.0000       3.395027        92.3834 
 512   0.0000       3.396126        92.4133 
 513   0.0000       3.399631        92.5087 
 514   0.0000       3.405678        92.6732 
 515   0.0000       3.410881        92.8148 
 516   0.0000       3.414135        92.9033 
 517   0.0000       3.416946        92.9798 
 518   0.0000       3.427493        93.2668 
 519   0.0000       3.429487        93.3211 
 520   0.0000       3.437779        93.5467 
 521   0.0000       3.443018        93.6893 
 522   0.0000       3.448650        93.8425 
 523   0.0000       3.450752        93.8997 
 524   0.0000       3.456329        94.0515 
 525   0.0000       3.463231        94.2393 
 526   0.0000       3.466025        94.3153 
 527   0.0000       3.474592        94.5485 
 528   0.0000       3.482813        94.7722 
 529   0.0000       3.492353        95.0317 
 530   0.0000       3.494649        95.0942 
 531   0.0000       3.496692        95.1498 
 532   0.0000       3.501912        95.2919 
 533   0.0000       3.513646        95.6112 
 534   0.0000       3.518476        95.7426 
 535   0.0000       3.523440        95.8777 
 536   0.0000       3.531705        96.1026 
 537   0.0000       3.536332        96.2285 
 538   0.0000       3.539977        96.3277 
 539   0.0000       3.547243        96.5254 
 540   0.0000       3.551781        96.6489 
 541   0.0000       3.563277        96.9617 
 542   0.0000       3.569428        97.1291 
 543   0.0000       3.573780        97.2475 
 544   0.0000       3.574755        97.2740 
 545   0.0000       3.578453        97.3747 
 546   0.0000       3.584394        97.5363 
 547   0.0000       3.586434        97.5918 
 548   0.0000       3.592541        97.7580 
 549   0.0000       3.603014        98.0430 
 550   0.0000       3.607444        98.1635 
 551   0.0000       3.608704        98.1978 
 552   0.0000       3.615346        98.3786 
 553   0.0000       3.631796        98.8262 
 554   0.0000       3.636289        98.9485 
 555   0.0000       3.639486        99.0354 
 556   0.0000       3.642641        99.1213 
 557   0.0000       3.646295        99.2207 
 558   0.0000       3.653998        99.4303 
 559   0.0000       3.659563        99.5818 
 560   0.0000       3.669463        99.8512 
 561   0.0000       3.676049       100.0304 
 562   0.0000       3.680489       100.1512 
 563   0.0000       3.690053       100.4115 
 564   0.0000       3.695277       100.5536 
 565   0.0000       3.700682       100.7007 
 566   0.0000       3.706889       100.8696 
 567   0.0000       3.712501       101.0223 
 568   0.0000       3.717617       101.1615 
 569   0.0000       3.724643       101.3527 
 570   0.0000       3.726841       101.4125 
 571   0.0000       3.739764       101.7641 
 572   0.0000       3.744704       101.8986 
 573   0.0000       3.757047       102.2345 
 574   0.0000       3.763171       102.4011 
 575   0.0000       3.767115       102.5084 
 576   0.0000       3.772054       102.6428 
 577   0.0000       3.775606       102.7395 
 578   0.0000       3.790345       103.1405 
 579   0.0000       3.791114       103.1615 
 580   0.0000       3.801104       103.4333 
 581   0.0000       3.808640       103.6384 
 582   0.0000       3.810517       103.6894 
 583   0.0000       3.821501       103.9883 
 584   0.0000       3.824814       104.0785 
 585   0.0000       3.828445       104.1773 
 586   0.0000       3.835499       104.3692 
 587   0.0000       3.841662       104.5369 
 588   0.0000       3.846007       104.6552 
 589   0.0000       3.858887       105.0057 
 590   0.0000       3.861655       105.0810 
 591   0.0000       3.867799       105.2482 
 592   0.0000       3.870706       105.3273 
 593   0.0000       3.875153       105.4483 
 594   0.0000       3.881669       105.6256 
 595   0.0000       3.886459       105.7559 
 596   0.0000       3.889717       105.8446 
 597   0.0000       3.893346       105.9433 
 598   0.0000       3.899738       106.1173 
 599   0.0000       3.902244       106.1855 
 600   0.0000       3.910349       106.4060 
 601   0.0000       3.915050       106.5339 
 602   0.0000       3.918637       106.6315 
 603   0.0000       3.926071       106.8338 
 604   0.0000       3.929923       106.9386 
 605   0.0000       3.946263       107.3833 
 606   0.0000       3.950011       107.4853 
 607   0.0000       3.953852       107.5898 
 608   0.0000       3.962465       107.8241 
 609   0.0000       3.967740       107.9677 
 610   0.0000       3.969654       108.0198 
 611   0.0000       3.975891       108.1895 
 612   0.0000       3.982344       108.3651 
 613   0.0000       3.989283       108.5539 
 614   0.0000       4.002780       108.9212 
 615   0.0000       4.007154       109.0402 
 616   0.0000       4.015096       109.2563 
 617   0.0000       4.019559       109.3778 
 618   0.0000       4.020689       109.4085 
 619   0.0000       4.034505       109.7844 
 620   0.0000       4.053020       110.2883 
 621   0.0000       4.061187       110.5105 
 622   0.0000       4.068082       110.6981 
 623   0.0000       4.072700       110.8238 
 624   0.0000       4.076041       110.9147 
 625   0.0000       4.076924       110.9387 
 626   0.0000       4.092854       111.3722 
 627   0.0000       4.100456       111.5791 
 628   0.0000       4.104532       111.6900 
 629   0.0000       4.116655       112.0199 
 630   0.0000       4.121579       112.1539 
 631   0.0000       4.126653       112.2919 
 632   0.0000       4.131150       112.4143 
 633   0.0000       4.132917       112.4624 
 634   0.0000       4.145140       112.7950 
 635   0.0000       4.149469       112.9128 
 636   0.0000       4.157834       113.1404 
 637   0.0000       4.169428       113.4559 
 638   0.0000       4.170937       113.4970 
 639   0.0000       4.176514       113.6487 
 640   0.0000       4.184618       113.8693 
 641   0.0000       4.194516       114.1386 
 642   0.0000       4.200155       114.2920 
 643   0.0000       4.209181       114.5376 
 644   0.0000       4.211835       114.6099 
 645   0.0000       4.212944       114.6400 
 646   0.0000       4.215178       114.7008 
 647   0.0000       4.224977       114.9675 
 648   0.0000       4.230811       115.1262 
 649   0.0000       4.245335       115.5214 
 650   0.0000       4.247823       115.5891 
 651   0.0000       4.255294       115.7924 
 652   0.0000       4.259625       115.9103 
 653   0.0000       4.266728       116.1036 
 654   0.0000       4.271163       116.2243 
 655   0.0000       4.277727       116.4029 
 656   0.0000       4.283485       116.5595 
 657   0.0000       4.286772       116.6490 
 658   0.0000       4.293985       116.8453 
 659   0.0000       4.296384       116.9106 
 660   0.0000       4.305191       117.1502 
 661   0.0000       4.320645       117.5707 
 662   0.0000       4.329644       117.8156 
 663   0.0000       4.336907       118.0132 
 664   0.0000       4.347674       118.3062 
 665   0.0000       4.357609       118.5766 
 666   0.0000       4.359475       118.6273 
 667   0.0000       4.363826       118.7457 
 668   0.0000       4.373433       119.0072 
 669   0.0000       4.375504       119.0635 
 670   0.0000       4.383982       119.2942 
 671   0.0000       4.391728       119.5050 
 672   0.0000       4.398234       119.6820 
 673   0.0000       4.405806       119.8881 
 674   0.0000       4.406466       119.9060 
 675   0.0000       4.418030       120.2207 
 676   0.0000       4.428255       120.4989 
 677   0.0000       4.430299       120.5546 
 678   0.0000       4.439678       120.8098 
 679   0.0000       4.448146       121.0402 
 680   0.0000       4.452003       121.1452 
 681   0.0000       4.459512       121.3495 
 682   0.0000       4.468528       121.5948 
 683   0.0000       4.486056       122.0718 
 684   0.0000       4.487333       122.1065 
 685   0.0000       4.493625       122.2778 
 686   0.0000       4.499356       122.4337 
 687   0.0000       4.511865       122.7741 
 688   0.0000       4.513102       122.8077 
 689   0.0000       4.516511       122.9005 
 690   0.0000       4.530082       123.2698 
 691   0.0000       4.535358       123.4134 
 692   0.0000       4.539580       123.5283 
 693   0.0000       4.545266       123.6830 
 694   0.0000       4.554261       123.9277 
 695   0.0000       4.563711       124.1849 
 696   0.0000       4.564481       124.2058 
 697   0.0000       4.576182       124.5243 
 698   0.0000       4.578172       124.5784 
 699   0.0000       4.589385       124.8835 
 700   0.0000       4.590003       124.9003 
 701   0.0000       4.594296       125.0172 
 702   0.0000       4.601121       125.2029 
 703   0.0000       4.608056       125.3916 
 704   0.0000       4.618990       125.6891 
 705   0.0000       4.625600       125.8690 
 706   0.0000       4.630558       126.0039 
 707   0.0000       4.633850       126.0935 
 708   0.0000       4.646239       126.4306 
 709   0.0000       4.659541       126.7926 
 710   0.0000       4.668233       127.0291 
 711   0.0000       4.669716       127.0694 
 712   0.0000       4.685372       127.4955 
 713   0.0000       4.690599       127.6377 
 714   0.0000       4.697340       127.8211 
 715   0.0000       4.708388       128.1217 
 716   0.0000       4.713688       128.2660 
 717   0.0000       4.732332       128.7733 
 718   0.0000       4.740506       128.9957 
 719   0.0000       4.745727       129.1378 
 720   0.0000       4.752547       129.3234 
 721   0.0000       4.753882       129.3597 
 722   0.0000       4.763938       129.6333 
 723   0.0000       4.770925       129.8235 
 724   0.0000       4.772797       129.8744 
 725   0.0000       4.783413       130.1633 
 726   0.0000       4.787954       130.2869 
 727   0.0000       4.794272       130.4588 
 728   0.0000       4.809022       130.8601 
 729   0.0000       4.813359       130.9781 
 730   0.0000       4.816291       131.0580 
 731   0.0000       4.825848       131.3180 
 732   0.0000       4.832693       131.5043 
 733   0.0000       4.843672       131.8030 
 734   0.0000       4.846459       131.8789 
 735   0.0000       4.854332       132.0931 
 736   0.0000       4.862622       132.3187 
 737   0.0000       4.881411       132.8299 
 738   0.0000       4.886116       132.9580 
 739   0.0000       4.908459       133.5660 
 740   0.0000       4.916075       133.7732 
 741   0.0000       4.924850       134.0120 
 742   0.0000       4.931092       134.1818 
 743   0.0000       4.933995       134.2608 
 744   0.0000       4.943845       134.5289 
 745   0.0000       4.951566       134.7390 
 746   0.0000       4.961433       135.0074 
 747   0.0000       4.973701       135.3413 
 748   0.0000       4.981898       135.5643 
 749   0.0000       4.995184       135.9259 
 750   0.0000       5.000625       136.0739 
 751   0.0000       5.001436       136.0960 
 752   0.0000       5.007327       136.2563 
 753   0.0000       5.021751       136.6488 
 754   0.0000       5.033654       136.9727 
 755   0.0000       5.038601       137.1073 
 756   0.0000       5.055891       137.5778 
 757   0.0000       5.078874       138.2032 
 758   0.0000       5.092823       138.5828 
 759   0.0000       5.099456       138.7633 
 760   0.0000       5.113887       139.1559 
 761   0.0000       5.134608       139.7198 
 762   0.0000       5.141944       139.9194 
 763   0.0000       5.157449       140.3413 
 764   0.0000       5.168247       140.6352 
 765   0.0000       5.174514       140.8057 
 766   0.0000       5.178701       140.9196 
 767   0.0000       5.186619       141.1351 
 768   0.0000       5.202960       141.5797 
 769   0.0000       5.215330       141.9163 
 770   0.0000       5.220434       142.0552 
 771   0.0000       5.237003       142.5061 
 772   0.0000       5.247278       142.7857 
 773   0.0000       5.257432       143.0620 
 774   0.0000       5.258697       143.0964 
 775   0.0000       5.270057       143.4055 
 776   0.0000       5.284122       143.7883 
 777   0.0000       5.286420       143.8508 
 778   0.0000       5.289068       143.9229 
 779   0.0000       5.301632       144.2647 
 780   0.0000       5.316202       144.6612 
 781   0.0000       5.328468       144.9950 
 782   0.0000       5.346849       145.4952 
 783   0.0000       5.360228       145.8592 
 784   0.0000       5.368319       146.0794 
 785   0.0000       5.376561       146.3037 
 786   0.0000       5.385443       146.5453 
 787   0.0000       5.397618       146.8767 
 788   0.0000       5.400154       146.9457 
 789   0.0000       5.417777       147.4252 
 790   0.0000       5.425595       147.6380 
 791   0.0000       5.446145       148.1971 
 792   0.0000       5.449658       148.2927 
 793   0.0000       5.454903       148.4354 
 794   0.0000       5.468056       148.7934 
 795   0.0000       5.475742       149.0025 
 796   0.0000       5.494319       149.5080 
 797   0.0000       5.505262       149.8058 
 798   0.0000       5.512959       150.0153 
 799   0.0000       5.520141       150.2107 
 800   0.0000       5.527065       150.3991 
 801   0.0000       5.538437       150.7085 
 802   0.0000       5.551074       151.0524 
 803   0.0000       5.572223       151.6279 
 804   0.0000       5.583319       151.9298 
 805   0.0000       5.586703       152.0219 
 806   0.0000       5.612112       152.7133 
 807   0.0000       5.627143       153.1224 
 808   0.0000       5.639074       153.4470 
 809   0.0000       5.644610       153.5977 
 810   0.0000       5.673189       154.3753 
[...]
--------------------------------
INITIAL GUESS AND PNO GENERATION
--------------------------------

PNO truncation parameters                   .... 
    ScaleTCutPNO       =        1.000e-02
    PAOOverlapThresh   =        1.000e-08

    TCutPairs          =        1.000e-05
    TCutPNO            =        1.000e-07
    TCutPNOSingles     =        3.000e-09
    TCutMP2Pairs       =        1.000e-06
    TCutMKN            =        1.000e-03
    TCutDO             =        5.000e-03

Pair selection                          .... not used
Type of local MP2 treatment                 .... full local PMP2
Strategy for PNO selection                  .... occupation number selection
Pair density normalization                  .... MP2 norm
Spin component scaling                      .... not used

PASS-1: Formation of initial guess LMP2 amplitudes
Initial amplitudes guess done. Entering LMP2 iteration loop:
   Max. no of iterations          ...  50
   Energy convergence tolerance   ...    1.0e-07
   Residual convergence tolerance ...    5.0e-07
   Fock matrix cutoff             ...    1.0e-05 Eh
   DIIS convergence acceleration parameters:
        Max # vectors in DIIS     ... 7
        Start iteration of DIIS   ... 0
        Levelshift                ... 2.000e-01
        Damping factor 1          ... 5.000e-01
        Damping factor 2          ... 1.000e+00
   L-MP2 PNO cut-off              ...   1.0e-09
   L-MP2 PNO cut-off (core)       ...   1.0e-11
                           *** Turning on DIIS ***
LMP2-Iter=   0:  ELMP2= -4.248763494486  DE=   1.0e-01 RMAX=   1.4e-02
LMP2-Iter=   1:  ELMP2= -4.302243927252  DE=   5.3e-02 RMAX=   6.3e-03
LMP2-Iter=   2:  ELMP2= -4.313069133638  DE=   1.1e-02 RMAX=   2.4e-03
LMP2-Iter=   3:  ELMP2= -4.314497169369  DE=   1.4e-03 RMAX=   8.9e-04
LMP2-Iter=   4:  ELMP2= -4.314514185350  DE=   1.7e-05 RMAX=   2.9e-04
LMP2-Iter=   5:  ELMP2= -4.314476220396  DE=   3.8e-05 RMAX=   8.7e-05
LMP2-Iter=   6:  ELMP2= -4.314470840333  DE=   5.4e-06 RMAX=   2.3e-05
LMP2-Iter=   7:  ELMP2= -4.314472075154  DE=   1.2e-06 RMAX=   7.1e-06
LMP2-Iter=   8:  ELMP2= -4.314472744290  DE=   6.7e-07 RMAX=   1.9e-06
LMP2-Iter=   9:  ELMP2= -4.314472682967  DE=   6.1e-08 RMAX=   5.7e-07
LMP2-Iter=  10:  ELMP2= -4.314472672252  DE=   1.1e-08 RMAX=   1.5e-07
LMP2-Iter=  11:  ELMP2= -4.314472643563  DE=   2.9e-08 RMAX=   4.1e-08 => CONVERGED
PASS-2: Formation of Pair natural orbitals
   .... Finished loop over pairs

 PNO Occupation Number Statistics: 
  | Av. % of trace(Dij) retained        ...  97.586224093964
  | sigma^2 in % of trace(Dij) retained ...   1.37e+01
  | Av. % of trace(Di) retained         ...  99.999686901899
  | sigma^2 in % of trace(Di) retained  ...   1.01e-08
 Distributions of % trace(Dij) recovered:
  |       >= 99.9  ...   244 ( 14.6 % of all pairs)
  |   [60.0, 70.0) ...     1 (  0.1 % of all pairs)
  |   [70.0, 80.0) ...    13 (  0.8 % of all pairs)
  |   [80.0, 90.0) ...    67 (  4.0 % of all pairs)
  |   [90.0, 99.0) ...   831 ( 49.9 % of all pairs)
  |   [99.0, 99.9) ...   511 ( 30.7 % of all pairs)
 Distributions of % trace(Di) recovered :
  |       >= 99.9  ...    64 (100.0 % of all I-pairs )

Making pair pair interaction lists          ... done

                       ===========================
                       1112 OF 1667 PAIRS ARE KEPT
                       ===========================

Total time spent in the initial guess                 ...   487.283 sec
L-MP2 correlation energy (all non-screened pairs)     ...      -4.314472643563 Eh
L-MP2 PNO error correction                            ...      -0.000160411288 Eh
                                                          --------------------
Initial total L-MP2 energy (non-screened pairs)       ...      -4.314633054851 Eh

Initial PNO correlation energy                        ...      -4.307381683758 Eh
sum of pair energies estimated for screened out pairs ...      -0.000170694838 Eh
sum of MP2 pair energies for pairs that were not kept ...      -0.002588216857 Eh
sum of PNO error estimates for the kept pairs         ...      -0.005097401571 Eh
                                                          --------------------
sum of all corrections                                         -0.007856313266
Initial total correlation energy                               -4.315237997024
Thresholds for map construction and integral transformation for fine MP2 and CCSD(T) calculation:
   TCutMKN   ...     1.0e-03
   TCutDO    ...     5.0e-03
   TCutPairs ...     1.0e-05
   TCutCMO   ...     1.0e-03
   TCutCPAO  ...     1.0e-03

Time for aux screen maps:            0.016
Time for maps after fine MP2:            0.097
-----------------------------
LOCAL RI TRANSFORMATION (IJV)
-----------------------------

Orbital window:      23 to 86
Basis functions:    970 (350 shells)
Aux. functions:    2463 (729 shells)
Use SHARK:           on

Processing maps (0.0 sec)
Average map sizes:
   Aux shells -> MOs(i)           53.3
   Aux shells -> MOs(j)           64.0
   MOs        -> AO shells       273.8

Calculating integrals (4.3 sec, 64.424 MB)
Sorting integrals (0.2 sec, 64.397 MB)
Total time for the integral transformation: 4.6 sec
--------------------------------
LOCAL RI TRANSFORMATION (VABPAO)
--------------------------------

Number of PAOs:     970
Basis functions:    970 (350 shells)
Aux. functions:    2463 (729 shells)
Use SHARK:           on

Processing maps (0.0 sec)
Average map sizes:
   Aux shells -> PAOs            944.0
   PAOs       -> AO shells       320.7

Calculating integrals (65.6 sec, 16816.807 MB)
Finished


-------------------------------------
Pair Pair Term precalculation with     
RI-(ij|mn) and (im|jn) transformation  
ON THE FLY                             
-------------------------------------

   IBatch   1 (of   3)              ... done (  237.418 sec)
   IBatch   2 (of   3)              ... done (  298.213 sec)
   IBatch   3 (of   3)              ... done (  407.337 sec)
Total EXT                           ...         942.969 sec

---------------------
RI-PNO TRANSFORMATION
---------------------

Total Number of PNOs                   ... 34795
Average number of PNOs per pair        ...    31
Maximal number of PNOs per pair        ...    88
   #pairs with  1 -  5 PNOs   :    0
   #pairs with  6 - 10 PNOs   :  243
   #pairs with 11 - 15 PNOs   :  130
   #pairs with 16 - 20 PNOs   :   82
   #pairs with 21 - 25 PNOs   :   75
   #pairs with 26 - 30 PNOs   :   74
   #pairs with 31 - 35 PNOs   :   64
   #pairs with 36 - 40 PNOs   :   48
   #pairs with 41 - 45 PNOs   :   47
   #pairs with 46 - 50 PNOs   :   89
   #pairs with 51 - 55 PNOs   :   89
   #pairs with 56 - 60 PNOs   :   45
   #pairs with 61 - 65 PNOs   :   67
   #pairs with 66 - 70 PNOs   :   35
   #pairs with 71 - 75 PNOs   :   19
   #pairs with 76 - 80 PNOs   :    3
   #pairs with 81 - 85 PNOs   :    1
   #pairs with 86 - 90 PNOs   :    1

Generation of (ij|ab)[P] integrals            ... on
Generation of (ia|bc)[P],(ja|bc)[P] integrals ... on
Storage of 3 and 4 external integrals         ... on
Generation of ALL (ka|bc)[P] integrals        ... on
Keep RI integrals in memory                   ... off

Ibatch:  1 (of  1)
Starting 2-4 index PNO integral generation ... done

Timings:
Total PNO integral transformation time     ...        468.799 sec
Size of the 3-external file                ...       636 MB
Size of the 4-external file                ...      4605 MB
Size of the IKJL file                      ...         1 MB
Size of the all 3-external file            ...     17602 MB
Size of the 1-external file                ...        45 MB

Making pair/pair overlap matrices          ... done (  157.149 sec)
Size of the pair overlap file              ... 5682 MB
Redoing the guess amplitudes               ... done (    0.082 sec)

-------------------------
FINAL STARTUP INFORMATION
-------------------------

E(0)                                       ...  -1154.685985236
E(L-MP2)                                   ...     -4.314633055
E(L-MP2) including corrections             ...     -4.315237997
Initial E(tot)                             ...  -1159.001223233
<T|T>                                      ...      1.091391574
Number of pairs included                   ... 1112
Total number of pairs                      ... 2080

------------------------------------------------
                  RHF COUPLED CLUSTER ITERATIONS
------------------------------------------------

Number of PNO amplitudes to be optimized   ...      1556303
Number of non-PNO amplitudes               ...    867014168
Untruncated number of regular amplitudes   ...   1621753120

Iter       E(tot)           E(Corr)          Delta-E          Residual     Time
  0  -1158.832603507     -4.138761958      0.175871097      0.018006397   87.88
                           *** Turning on DIIS ***
  1  -1158.939986721     -4.246145172     -0.107383214      0.010406994   76.92
  2  -1159.042010920     -4.348169371     -0.102024199      0.006088254   78.67
  3  -1159.064409296     -4.370567747     -0.022398376      0.003290492   77.90
  4  -1159.071488935     -4.377647385     -0.007079639      0.001718706   78.76
  5  -1159.073932129     -4.380090580     -0.002443195      0.000839387   77.61
  6  -1159.074534432     -4.380692882     -0.000602302      0.000395720   78.18
  7  -1159.074633510     -4.380791961     -0.000099078      0.000210688   77.68
  8  -1159.074672139     -4.380830589     -0.000038629      0.000119461   77.25
  9  -1159.074648332     -4.380806783      0.000023807      0.000061459   77.72
 10  -1159.074651658     -4.380810109     -0.000003326      0.000030100   78.00
 11  -1159.074649363     -4.380807814      0.000002294      0.000016143   77.63
 12  -1159.074647839     -4.380806290      0.000001524      0.000009227   77.80
               --- The Coupled-Cluster iterations have converged ---

----------------------
COUPLED CLUSTER ENERGY
----------------------

E(0)                                       ...  -1154.685985236
E(CORR)(strong-pairs)                      ...     -4.380806290
E(CORR)(weak-pairs)                        ...     -0.007856313
E(CORR)(corrected)                         ...     -4.388662603
E(TOT)                                     ...  -1159.074647839
Singles Norm <S|S>**1/2                    ...      0.154501762  
T1 diagnostic                              ...      0.013656155  

------------------
LARGEST AMPLITUDES
------------------
  53-> 87  53-> 87       0.056845
  52-> 87  52-> 87       0.053598
  67-> 87  67-> 87       0.052202
  53-> 87  52-> 87       0.048567
  70-> 87  70-> 87       0.047662
  71-> 87  71-> 87       0.046176
  66-> 87  66-> 87       0.043601
  67-> 87  66-> 87       0.041823
  71-> 87  70-> 87       0.041240
  40-> 87  40-> 87       0.040864
  54-> 91  54-> 91       0.035738
  29-> 93  29-> 93       0.034085
  56-> 87  56-> 87       0.033311
  57-> 87  57-> 87       0.032850
  56-> 87  -1-> -1       0.031860
  57-> 87  -1-> -1       0.031679


-------------------------------------------
DLPNO BASED TRIPLES CORRECTION
-------------------------------------------

Singles multiplier          ...  1.000000
TCutTNO                     ... 1.000e-09
TCutMP2Pairs                ... 1.000e-06
TCutDOStrong                ... 1.000e-02
TCutMKNStrong               ... 1.000e-02
TCutDOWeak                  ... 2.000e-02
TCutMKNWeak                 ... 1.000e-01

Fragment selection                          .... not used
Fock matrix occ-virt block is zero --> Setting DT_in_Triples to false.
Number of Triples that are to be computed   ...     18750

 . . . . . . . . .
10% done  
20% done  
30% done  
40% done               (   2601.788 sec)
 . . . . . . . . .
50% done  
60% done  
70% done  
80% done  
90% done               (   2801.730 sec)
Triples timings:
Total time for T0               ...  5995.802 sec
Total time for Iterative (T)    ...     0.000 sec
Total time of overall (T)       ...  6030.093 sec

Triples List generation         ...     0.000 sec
TNO generation                  ...   591.993 sec
Pair density generation         ...     0.035 sec
Look up tables                  ...     0.000 sec
Generating 3-index integrals    ...  3843.577 sec
  Make 4-ind.int. from 3-ind.int...   147.918 sec
  Projecting amplitudes (D + S) ...  1250.347 sec
  Downprojecting integrals      ...     0.010 sec
  Energy contr. (sum over a,b,c)...    11.302 sec
Fitting ET(->0)                 ...     0.000 sec

Everything after 3-index        ...  1559.942 sec

Timing details:
 TNO integrals                  ...  3986.505 sec
   Reading 3-index integrals    ...    17.482 sec
   Sorting integrals            ...   241.889 sec
       Sorting integrals 1      ...     0.007 sec
       Sorting integrals 2      ...   226.838 sec
       Sorting integrals 3      ...     2.818 sec
       Sorting integrals 4      ...     0.406 sec
       Sorting integrals 5      ...     1.790 sec
       Sorting integrals 6      ...    10.030 sec
   Calculating local VM**-1/2   ...     7.948 sec
   Orthogonal. integrals        ...    15.279 sec
   Multipl. 3-index integrals   ...  3703.908 sec
   All concerning IRIab (w/TNO) ...   108.350 sec

 Calculate W0/W1                ...   150.329 sec
 W 3-ext contribution           ...    93.034 sec
 W 3-int contribution           ...    46.673 sec
 Sorting W                      ...     9.414 sec

 V exchange contribution        ...     3.449 sec

 Timings for Triples without generation
     of 3-index integrals       ...  1559.925 sec
       0 weak pairs             ...  1170.206 sec
       1 weak pair              ...   389.720 sec
       2 weak pairs             ...     0.000 sec
       3 weak pairs             ...     0.000 sec
  Extra time for extrapolation  ...     0.000 sec

Number of Triples   (0, 1, 2, 3 weak pairs; overall):  11311    7439       0       0  ( 18750)
Number of Atoms     (0, 1, 2, 3 weak pairs; overall):   23.2    21.9     0.0     0.0  (    43)
Number of PAOs      (0, 1, 2, 3 weak pairs; overall):  553.4   532.2     0.0     0.0  (   970)
Number of AuxFcns   (0, 1, 2, 3 weak pairs; overall):  515.3   384.0     0.0     0.0  (  2463)
Number of TNOs      (0, 1, 2, 3 weak pairs         ):   85.7    52.1     0.0     0.0
Aver. Number of NTNO, Atoms, PAOs, AuxFcns / Triples:  18750    72.4    22.7   545.0   463.2

Triples Correction (T)                     ...     -0.192408964
Final correlation energy                   ...     -4.581071568
E(CCSD)                                    ...  -1159.074647839
E(CCSD(T))                                 ...  -1159.267056804



--------------------------------------------------------------------------------
                                    TIMINGS
--------------------------------------------------------------------------------


Total execution time                   ...     9474.388 sec

Localization of occupied MO's          ...        8.975 sec (  0.1%)
Fock Matrix Formation                  ...       73.502 sec (  0.8%)
Global overlap, Fock, MKN matrices     ...        2.593 sec (  0.0%)
Differential overlap integrals         ...        3.173 sec (  0.0%)
Organizing maps                        ...        0.278 sec (  0.0%)
RI 3-index integral generations        ...       86.748 sec (  0.9%)
RI-PNO integral transformation         ...     1631.145 sec ( 17.2%)
Initial Guess                          ...      614.065 sec (  6.5%)
DIIS Solver                            ...       14.465 sec (  0.2%)
State Vector Update                    ...        0.104 sec (  0.0%)
Sigma-vector construction              ...     1017.318 sec ( 10.7%)
  <0|H|D>                              ...        0.002 sec (  0.0% of sigma)
  <D|H|D>(0-ext)                       ...       79.280 sec (  7.8% of sigma)
  <D|H|D>(2-ext Fock)                  ...        0.076 sec (  0.0% of sigma)
  <D|H|D>(2-ext)                       ...      351.023 sec ( 34.5% of sigma)
  <D|H|D>(4-ext)                       ...       31.343 sec (  3.1% of sigma)
  <D|H|D>(4-ext-corr)                  ...      225.794 sec ( 22.2% of sigma)
  CCSD doubles correction              ...        2.108 sec (  0.2% of sigma)
  <S|H|S>                              ...        4.402 sec (  0.4% of sigma)
  <S|H|D>(1-ext)                       ...        5.547 sec (  0.5% of sigma)
  <D|H|S>(1-ext)                       ...        0.064 sec (  0.0% of sigma)
  <S|H|D>(3-ext)                       ...        0.775 sec (  0.1% of sigma)
  CCSD singles correction              ...        0.002 sec (  0.0% of sigma)
  Fock-dressing                        ...      168.597 sec ( 16.6% of sigma)
  Singles amplitudes                   ...       21.536 sec (  2.1% of sigma)
  (ik|jl)-dressing                     ...       62.837 sec (  6.2% of sigma)
  (ij|ab),(ia|jb)-dressing             ...       20.741 sec (  2.0% of sigma)
  Pair energies                        ...        0.022 sec (  0.0% of sigma)
Total Time for computing (T)           ...     6030.201 sec ( 63.6% of ALL)


Maximum memory used throughout the entire MDCI-calculation: 10102.5 MB

-------------------------   --------------------
FINAL SINGLE POINT ENERGY     -1159.267056803536
-------------------------   --------------------


                            ***************************************
                            *     ORCA property calculations      *
                            ***************************************


  WARNING: The energy has been calculated at the MDCI level but the densities
           used in the property calculations are still SCF densities
           MDCI response densities have not been calculated 
           use %mdci Density linearized end
           or  %mdci Density unrelaxed end
           or  %mdci Density orbopt end

                                    ---------------------
                                    Active property flags
                                    ---------------------
   (+) Dipole Moment


------------------------------------------------------------------------------
                       ORCA ELECTRIC PROPERTIES CALCULATION
------------------------------------------------------------------------------

Dipole Moment Calculation                       ... on
Quadrupole Moment Calculation                   ... off
Polarizability Calculation                      ... off
GBWName                                         ... input.gbw
Electron density                                ... input.scfp
The origin for moment calculation is the CENTER OF MASS  = (19.868886, 18.410369 18.433711)

-------------
DIPOLE MOMENT
-------------
                                X             Y             Z
Electronic contribution:     24.41873      -9.69854      -0.33460
Nuclear contribution   :    -35.21142      13.59272       6.11691
                        -----------------------------------------
Total Dipole Moment    :    -10.79269       3.89419       5.78231
                        -----------------------------------------
Magnitude (a.u.)       :     12.84842
Magnitude (Debye)      :     32.65809



--------------------
Rotational spectrum 
--------------------
 
Rotational constants in cm-1:     0.015403     0.004090     0.003991 
Rotational constants in MHz :   461.783458   122.604014   119.647687 

 Dipole components along the rotational axes: 
x,y,z [a.u.] :    11.905369     4.409758     1.974380 
x,y,z [Debye]:    30.261042    11.208715     5.018475 

 

Timings for individual modules:

Sum of individual times         ...     9992.809 sec (= 166.547 min)
GTO integral calculation        ...        3.260 sec (=   0.054 min)   0.0 %
SCF iterations                  ...      513.393 sec (=   8.557 min)   5.1 %
MDCI module                     ...     9476.156 sec (= 157.936 min)  94.8 %
                             ****ORCA TERMINATED NORMALLY****
TOTAL RUN TIME: 0 days 2 hours 46 minutes 35 seconds 204 msec
