Loading orca/5.0.3
  Loading requirement: gcc-runtime/11.3.1-gcc-11.3.1-jw6fhud
    numactl/2.0.14-gcc-11.3.1-tqvsbcd openssh/8.7p1-gcc-11.3.1-ddo4kmk
    libiconv/1.17-gcc-11.3.1-h3jdn2x xz/5.4.1-gcc-11.3.1-y32p7p3
    zlib/1.2.13-gcc-11.3.1-dwcx77k libxml2/2.10.3-gcc-11.3.1-m4mk5ab
    cuda/11.8.0-gcc-11.3.1-i5witig libpciaccess/0.17-gcc-11.3.1-qksiqer
    ncurses/6.4-gcc-11.3.1-afnu276 hwloc/2.9.1-gcc-11.3.1-qedjm66
    openssl/3.1.2-gcc-11.3.1-mgoa6lt libevent/2.1.12-gcc-11.3.1-bpr3m74
    pmix/4.2.2-gcc-11.3.1-du4y5e7 slurm/22.05.6-gcc-11.3.1-atym2np
    libnl/3.3.0-gcc-11.3.1-gh3muw7 rdma-core/41.0-gcc-11.3.1-isp54jw
    ucx/1.14.1-gcc-11.3.1-o3wj4kz openmpi/4.1.2-gcc-11.3.1-fs7u3kb

                                 *****************
                                 * O   R   C   A *
                                 *****************

                                            #,                                       
                                            ###                                      
                                            ####                                     
                                            #####                                    
                                            ######                                   
                                           ########,                                 
                                     ,,################,,,,,                         
                               ,,#################################,,                 
                          ,,##########################################,,             
                       ,#########################################, ''#####,          
                    ,#############################################,,   '####,        
                  ,##################################################,,,,####,       
                ,###########''''           ''''###############################       
              ,#####''   ,,,,##########,,,,          '''####'''          '####       
            ,##' ,,,,###########################,,,                        '##       
           ' ,,###''''                  '''############,,,                           
         ,,##''                                '''############,,,,        ,,,,,,###''
      ,#''                                            '''#######################'''  
     '                                                          ''''####''''         
             ,#######,   #######,   ,#######,      ##                                
            ,#'     '#,  ##    ##  ,#'     '#,    #''#        ######   ,####,        
            ##       ##  ##   ,#'  ##            #'  '#       #        #'  '#        
            ##       ##  #######   ##           ,######,      #####,   #    #        
            '#,     ,#'  ##    ##  '#,     ,#' ,#      #,         ##   #,  ,#        
             '#######'   ##     ##  '#######'  #'      '#     #####' # '####'        



                  #######################################################
                  #                        -***-                        #
                  #          Department of theory and spectroscopy      #
                  #    Directorship and core code : Frank Neese         #
                  #        Max Planck Institute fuer Kohlenforschung    #
                  #                Kaiser Wilhelm Platz 1               #
                  #                 D-45470 Muelheim/Ruhr               #
                  #                      Germany                        #
                  #                                                     #
                  #                  All rights reserved                #
                  #                        -***-                        #
                  #######################################################


                         Program Version 5.0.3 -  RELEASE  -


 With contributions from (in alphabetic order):
   Daniel Aravena         : Magnetic Suceptibility
   Michael Atanasov       : Ab Initio Ligand Field Theory (pilot matlab implementation)
   Alexander A. Auer      : GIAO ZORA, VPT2 properties, NMR spectrum
   Ute Becker             : Parallelization
   Giovanni Bistoni       : ED, misc. LED, open-shell LED, HFLD
   Martin Brehm           : Molecular dynamics
   Dmytro Bykov           : SCF Hessian
   Vijay G. Chilkuri      : MRCI spin determinant printing, contributions to CSF-ICE
   Dipayan Datta          : RHF DLPNO-CCSD density
   Achintya Kumar Dutta   : EOM-CC, STEOM-CC
   Dmitry Ganyushin       : Spin-Orbit,Spin-Spin,Magnetic field MRCI
   Miquel Garcia          : C-PCM and meta-GGA Hessian, CC/C-PCM, Gaussian charge scheme
   Yang Guo               : DLPNO-NEVPT2, F12-NEVPT2, CIM, IAO-localization
   Andreas Hansen         : Spin unrestricted coupled pair/coupled cluster methods
   Benjamin Helmich-Paris : MC-RPA, TRAH-SCF, COSX integrals
   Lee Huntington         : MR-EOM, pCC
   Robert Izsak           : Overlap fitted RIJCOSX, COSX-SCS-MP3, EOM
   Marcus Kettner         : VPT2
   Christian Kollmar      : KDIIS, OOCD, Brueckner-CCSD(T), CCSD density, CASPT2, CASPT2-K
   Simone Kossmann        : Meta GGA functionals, TD-DFT gradient, OOMP2, MP2 Hessian
   Martin Krupicka        : Initial AUTO-CI
   Lucas Lang             : DCDCAS
   Marvin Lechner         : AUTO-CI (C++ implementation), FIC-MRCC
   Dagmar Lenk            : GEPOL surface, SMD
   Dimitrios Liakos       : Extrapolation schemes; Compound Job, initial MDCI parallelization
   Dimitrios Manganas     : Further ROCIS development; embedding schemes
   Dimitrios Pantazis     : SARC Basis sets
   Anastasios Papadopoulos: AUTO-CI, single reference methods and gradients
   Taras Petrenko         : DFT Hessian,TD-DFT gradient, ASA, ECA, R-Raman, ABS, FL, XAS/XES, NRVS
   Peter Pinski           : DLPNO-MP2, DLPNO-MP2 Gradient
   Christoph Reimann      : Effective Core Potentials
   Marius Retegan         : Local ZFS, SOC
   Christoph Riplinger    : Optimizer, TS searches, QM/MM, DLPNO-CCSD(T), (RO)-DLPNO pert. Triples
   Tobias Risthaus        : Range-separated hybrids, TD-DFT gradient, RPA, STAB
   Michael Roemelt        : Original ROCIS implementation
   Masaaki Saitow         : Open-shell DLPNO-CCSD energy and density
   Barbara Sandhoefer     : DKH picture change effects
   Avijit Sen             : IP-ROCIS
   Kantharuban Sivalingam : CASSCF convergence, NEVPT2, FIC-MRCI
   Bernardo de Souza      : ESD, SOC TD-DFT
   Georgi Stoychev        : AutoAux, RI-MP2 NMR, DLPNO-MP2 response
   Willem Van den Heuvel  : Paramagnetic NMR
   Boris Wezisla          : Elementary symmetry handling
   Frank Wennmohs         : Technical directorship


 We gratefully acknowledge several colleagues who have allowed us to
 interface, adapt or use parts of their codes:
   Stefan Grimme, W. Hujo, H. Kruse, P. Pracht,  : VdW corrections, initial TS optimization,
                  C. Bannwarth, S. Ehlert          DFT functionals, gCP, sTDA/sTD-DF
   Ed Valeev, F. Pavosevic, A. Kumar             : LibInt (2-el integral package), F12 methods
   Garnet Chan, S. Sharma, J. Yang, R. Olivares  : DMRG
   Ulf Ekstrom                                   : XCFun DFT Library
   Mihaly Kallay                                 : mrcc  (arbitrary order and MRCC methods)
   Jiri Pittner, Ondrej Demel                    : Mk-CCSD
   Frank Weinhold                                : gennbo (NPA and NBO analysis)
   Christopher J. Cramer and Donald G. Truhlar   : smd solvation model
   Lars Goerigk                                  : TD-DFT with DH, B97 family of functionals
   V. Asgeirsson, H. Jonsson                     : NEB implementation
   FAccTs GmbH                                   : IRC, NEB, NEB-TS, DLPNO-Multilevel, CI-OPT
                                                   MM, QMMM, 2- and 3-layer-ONIOM, Crystal-QMMM,
                                                   LR-CPCM, SF, NACMEs, symmetry and pop. for TD-DFT,
                                                   nearIR, NL-DFT gradient (VV10), updates on ESD,
                                                   ML-optimized integration grids
   S Lehtola, MJT Oliveira, MAL Marques          : LibXC Library
   Liviu Ungur et al                             : ANISO software


 Your calculation uses the libint2 library for the computation of 2-el integrals
 For citations please refer to: http://libint.valeyev.net

 Your ORCA version has been built with support for libXC version: 5.1.0
 For citations please refer to: https://tddft.org/programs/libxc/

 This ORCA versions uses:
   CBLAS   interface :  Fast vector & matrix operations
   LAPACKE interface :  Fast linear algebra routines
   SCALAPACK package :  Parallel linear algebra routines
   Shared memory     :  Shared parallel matrices
   BLAS/LAPACK       :  OpenBLAS 0.3.15  USE64BITINT DYNAMIC_ARCH NO_AFFINITY Prescott SINGLE_THREADED
        Core in use  :  Prescott
   Copyright (c) 2011-2014, The OpenBLAS Project


================================================================================

----- Orbital basis set information -----
Your calculation utilizes the basis: cc-pVQZ 
       H, B-Ne : Obtained from the ccRepo (grant-hill.group.shef.ac.uk/ccrepo) Feb. 2017
                 T. H. Dunning, Jr., J. Chem. Phys. 90, 1007 (1989)
            He : Obtained from the ccRepo (grant-hill.group.shef.ac.uk/ccrepo) Feb. 2017
                 D. E. Woon, T. H. Dunning, Jr., J. Chem. Phys. 100, 2975 (1994)
  Li-Be, Na-Mg : Obtained from the ccRepo (grant-hill.group.shef.ac.uk/ccrepo) Feb. 2017
                 B. P. Prascher, D. E. Woon, K. A. Peterson, T. H. Dunning, Jr., A. K. Wilson, Theor. Chem. Acc. 128, 69 (2011)
         Al-Ar : Obtained from the ccRepo (grant-hill.group.shef.ac.uk/ccrepo) Feb. 2017
                 D. E. Woon, T. H. Dunning, Jr., J. Chem. Phys. 98, 1358 (1993)
            Ca : Obtained from the Peterson Research Group Website (tyr0.chem.wsu.edu/~kipeters) Feb. 2017
                 J. Koput, K. A. Peterson, J. Phys. Chem. 106, 9595 (2002)
         Sc-Zn : Obtained from the ccRepo (grant-hill.group.shef.ac.uk/ccrepo) Feb. 2017
                 N. B. Balabanov, K. A. Peterson, J. Chem. Phys. 123, 064107 (2005)
                 N. B. Balabanov, K. A. Peterson, J. Chem. Phys. 125, 074110 (2006)
         Ga-Kr : Obtained from the ccRepo (grant-hill.group.shef.ac.uk/ccrepo) Feb. 2017
                 A. K. Wilson, D. E. Woon, K. A. Peterson, T. H. Dunning, Jr., J. Chem. Phys. 110, 7667 (1999)

----- AuxC basis set information -----
Your calculation utilizes the auxiliary basis: cc-pVQZ/C 
  Obtained from the EMSL Basis Set Exchange (bse.pnl.gov) Feb. 2017
  H-He, B-F, Al-Ar, Ga-Kr : F. Weigend, A. Kohn, C. Hattig, J. Chem. Phys. 116, 3175 (2002)
             Li-Be, Na-Mg : C. Haettig, Phys. Chem. Chem. Phys. 7, 59 (2005)
                       Ne : C. Haettig, Phys. Chem. Chem. Phys. 7, 59 (2005)
                            F. Weigend, A. Kohn, C. Hattig, J. Chem. Phys. 116, 3175 (2002)
                    Sc-Zn : D. H. Bross, J. G. Hill, H. J. Werner, K. A. Peterson, J. Chem. Phys. 139, 094302 (2013)

================================================================================
                                        WARNINGS
                       Please study these warnings very carefully!
================================================================================


WARNING: Post HF methods need fully converged wavefunctions
  ===> : Setting SCFConvForced true
         You can overwrite this default with %scf ConvForced false 


WARNING: MDCI localization with Augmented Hessian Foster-Boys
  ===> : Switching off randomization!

INFO   : the flag for use of the SHARK integral package has been found!

================================================================================
                                       INPUT FILE
================================================================================
NAME = input
|  1> ! DLPNO-CCSD(T) cc-pVQZ cc-pVQZ/C TIGHTPNO TIGHTSCF
|  2> %maxcore 10000
|  3> %pal
|  4> nprocs 32
|  5> end
|  6> *xyz -1 1
|  7> H 4.321657106426 12.904823268615 8.261179110699
|  8> C 4.604406000000 11.906827000000 8.561939000000
|  9> H 5.197136000000 11.475461000000 7.746673000000
| 10> H 3.713794000000 11.280439000000 8.649609000000
| 11> C 5.378539000000 11.707879000000 9.846316000000
| 12> H 5.564943000000 10.635537000000 9.947302000000
| 13> H 4.754343000000 12.000417000000 10.695735000000
| 14> C 6.711912000000 12.433351000000 9.859827000000
| 15> H 6.619630000000 13.426886000000 10.300916000000
| 16> H 7.036614000000 12.580843000000 8.833027000000
| 17> N 7.802765000000 11.718940000000 10.492557000000
| 18> H 8.571154000000 11.448523000000 9.867233000000
| 19> C 8.071554000000 11.734272000000 11.780732000000
| 20> N 7.131367000000 12.105429000000 12.670754000000
| 21> H 6.170464000000 11.917086000000 12.451859000000
| 22> H 7.405730000000 12.024893000000 13.641433000000
| 23> N 9.274557000000 11.424479000000 12.217315000000
| 24> H 9.450486000000 11.486609000000 13.215962000000
| 25> H 10.001787000000 11.120928000000 11.578942000000
| 26> C 12.971417000000 10.689934000000 9.230108000000
| 27> H 13.604641000000 10.549593000000 10.090673000000
| 28> H 13.456783000000 10.963405000000 8.304137000000
| 29> C 11.651348000000 10.550141000000 9.326738000000
| 30> C 10.715199000000 10.991277000000 8.218973000000
| 31> O 11.137295000000 11.036634000000 7.037544000000
| 32> O 9.555471000000 11.334453000000 8.525229000000
| 33> O 11.056414000000 10.049825000000 10.453572000000
| 34> C 11.146839000000 8.507527000000 10.687662000000
| 35> H 10.637054000000 8.380074000000 11.643185000000
| 36> C 12.593527000000 8.261983000000 10.754363000000
| 37> H 13.108425000000 8.581130000000 11.645500000000
| 38> C 13.272808000000 7.930575000000 9.658798000000
| 39> C 12.565919000000 7.450986000000 8.473453000000
| 40> H 13.176291000000 7.148356000000 7.632545000000
| 41> C 11.246913000000 7.299333000000 8.464976000000
| 42> H 10.753447000000 6.792085000000 7.644601000000
| 43> C 10.373816000000 7.751567000000 9.590267000000
| 44> H 9.677753000000 8.501328000000 9.208982000000
| 45> O 9.661367000000 6.628879000000 10.046475000000
| 46> H 8.899781000000 6.924841000000 10.646529000000
| 47> C 14.783568000000 8.003028000000 9.611897000000
| 48> O 15.393183000000 8.193904000000 10.696393000000
| 49> O 15.323615000000 7.888607000000 8.503205000000
| 50> *
| 51> 
| 52>                          ****END OF INPUT****
================================================================================

                       ****************************
                       * Single Point Calculation *
                       ****************************

---------------------------------
CARTESIAN COORDINATES (ANGSTROEM)
---------------------------------
  H      4.321657   12.904823    8.261179
  C      4.604406   11.906827    8.561939
  H      5.197136   11.475461    7.746673
  H      3.713794   11.280439    8.649609
  C      5.378539   11.707879    9.846316
  H      5.564943   10.635537    9.947302
  H      4.754343   12.000417   10.695735
  C      6.711912   12.433351    9.859827
  H      6.619630   13.426886   10.300916
  H      7.036614   12.580843    8.833027
  N      7.802765   11.718940   10.492557
  H      8.571154   11.448523    9.867233
  C      8.071554   11.734272   11.780732
  N      7.131367   12.105429   12.670754
  H      6.170464   11.917086   12.451859
  H      7.405730   12.024893   13.641433
  N      9.274557   11.424479   12.217315
  H      9.450486   11.486609   13.215962
  H     10.001787   11.120928   11.578942
  C     12.971417   10.689934    9.230108
  H     13.604641   10.549593   10.090673
  H     13.456783   10.963405    8.304137
  C     11.651348   10.550141    9.326738
  C     10.715199   10.991277    8.218973
  O     11.137295   11.036634    7.037544
  O      9.555471   11.334453    8.525229
  O     11.056414   10.049825   10.453572
  C     11.146839    8.507527   10.687662
  H     10.637054    8.380074   11.643185
  C     12.593527    8.261983   10.754363
  H     13.108425    8.581130   11.645500
  C     13.272808    7.930575    9.658798
  C     12.565919    7.450986    8.473453
  H     13.176291    7.148356    7.632545
  C     11.246913    7.299333    8.464976
  H     10.753447    6.792085    7.644601
  C     10.373816    7.751567    9.590267
  H      9.677753    8.501328    9.208982
  O      9.661367    6.628879   10.046475
  H      8.899781    6.924841   10.646529
  C     14.783568    8.003028    9.611897
  O     15.393183    8.193904   10.696393
  O     15.323615    7.888607    8.503205

----------------------------
CARTESIAN COORDINATES (A.U.)
----------------------------
  NO LB      ZA    FRAG     MASS         X           Y           Z
   0 H     1.0000    0     1.008    8.166748   24.386582   15.611366
   1 C     6.0000    0    12.011    8.701066   22.500642   16.179720
   2 H     1.0000    0     1.008    9.821164   21.685479   14.639090
   3 H     1.0000    0     1.008    7.018054   21.316940   16.345392
   4 C     6.0000    0    12.011   10.163966   22.124685   18.606841
   5 H     1.0000    0     1.008   10.516218   20.098252   18.797677
   6 H     1.0000    0     1.008    8.984406   22.677502   20.212010
   7 C     6.0000    0    12.011   12.683676   23.495628   18.632373
   8 H     1.0000    0     1.008   12.509288   25.373137   19.465910
   9 H     1.0000    0     1.008   13.297273   23.774348   16.692002
  10 N     7.0000    0    14.007   14.745089   22.145587   19.828059
  11 H     1.0000    0     1.008   16.197134   21.634573   18.646368
  12 C     6.0000    0    12.011   15.253027   22.174560   22.262357
  13 N     7.0000    0    14.007   13.476331   22.875946   23.944255
  14 H     1.0000    0     1.008   11.660487   22.520029   23.530603
  15 H     1.0000    0     1.008   13.994802   22.723755   25.778572
  16 N     7.0000    0    14.007   17.526373   21.589137   23.087379
  17 H     1.0000    0     1.008   17.858830   21.706545   24.974549
  18 H     1.0000    0     1.008   18.900638   21.015508   21.881029
  19 C     6.0000    0    12.011   24.512426   20.201048   17.442376
  20 H     1.0000    0     1.008   25.709046   19.935842   19.068608
  21 H     1.0000    0     1.008   25.429635   20.717833   15.692545
  22 C     6.0000    0    12.011   22.017857   19.936877   17.624981
  23 C     6.0000    0    12.011   20.248792   20.770503   15.531608
  24 O     8.0000    0    15.999   21.046437   20.856216   13.299031
  25 O     8.0000    0    15.999   18.057223   21.419012   16.110348
  26 O     8.0000    0    15.999   20.893594   18.991417   19.754388
  27 C     6.0000    0    12.011   21.064473   16.076896   20.196754
  28 H     1.0000    0     1.008   20.101119   15.836045   22.002431
  29 C     6.0000    0    12.011   23.798317   15.612885   20.322801
  30 H     1.0000    0     1.008   24.771333   16.215986   22.006806
  31 C     6.0000    0    12.011   25.081972   14.986615   18.252483
  32 C     6.0000    0    12.011   23.746146   14.080323   16.012506
  33 H     1.0000    0     1.008   24.899581   13.508435   14.423420
  34 C     6.0000    0    12.011   21.253585   13.793740   15.996486
  35 H     1.0000    0     1.008   20.321070   12.835181   14.446202
  36 C     6.0000    0    12.011   19.603671   14.648339   18.122978
  37 H     1.0000    0     1.008   18.288303   16.065182   17.402454
  38 O     8.0000    0    15.999   18.257338   12.526766   18.985086
  39 H     1.0000    0     1.008   16.818149   13.086053   20.119024
  40 C     6.0000    0    12.011   27.936895   15.123531   18.163853
  41 O     8.0000    0    15.999   29.088900   15.484235   20.213253
  42 O     8.0000    0    15.999   28.957436   14.907307   16.068729

--------------------------------
INTERNAL COORDINATES (ANGSTROEM)
--------------------------------
 H      0   0   0     0.000000000000     0.00000000     0.00000000
 C      1   0   0     1.080000000000     0.00000000     0.00000000
 H      2   1   0     1.096386852170   107.33928986     0.00000000
 H      2   1   3     1.092354196215   109.80296377   245.26330786
 C      2   1   3     1.512774433457   119.46792638   122.74646825
 H      5   2   1     1.093097428584   107.14053007   180.60483071
 H      5   2   1     1.093943218554   109.39536558    65.26435102
 C      5   2   1     1.518017037794   113.21560973   300.25103543
 H      8   5   2     1.090957042999   111.37866318    92.44588439
 H      8   5   2     1.086969879467   108.59200831   335.50711141
 N      8   5   2     1.449375933783   115.43010620   218.30085614
 H     11   8   5     1.026926050982   115.28496263   114.80270308
 C     11   8   5     1.316008141073   125.12068575   274.14221558
 N     13  11   8     1.346791845128   120.49727311    19.41178874
 H     14  13  11     1.003355710645   118.20669420    30.95059958
 H     14  13  11     1.011918388066   115.00552563   175.89721069
 N     13  11   8     1.316735598648   120.55832449   201.38425127
 H     17  13  11     1.015926661010   118.01807988   177.48174956
 H     17  13  11     1.014163088280   121.12126687   356.69122024
 C     19  17  13     3.810705882706   168.70800269    99.39730965
 H     20  19  17     1.077608625468    88.87817556    83.21454090
 H     20  19  17     1.080642787714   148.16244982   297.32314327
 C     20  19  17     1.330962660825    36.31448254   236.07855481
 C     23  20  19     1.515954885847   121.92847255   136.14048038
 O     24  23  20     1.255387100741   119.37807979    25.94332684
 O     24  23  20     1.247610331192   118.33967256   207.95415642
 O     23  20  19     1.368947562096   121.95025431   318.83592313
 C     27  23  20     1.562580535374   117.31588565   284.25924305
 H     28  27  23     1.090481185974   102.68419373   178.21476379
 C     28  27  23     1.468893137257   103.22582931    59.84078780
 H     30  28  27     1.077543461203   117.30094045    73.49707442
 C     30  28  27     1.330983323956   120.45693114   267.54030015
 C     32  30  28     1.461075096040   120.17204263   343.15043880
 H     33  32  30     1.082250044929   116.69812729   183.10420499
 C     33  32  30     1.327722606561   121.55453481   358.19470806
 H     35  33  32     1.083431754789   120.71622546   190.18717938
 C     35  33  32     1.494353973075   122.75541601     7.37145131
 H     37  35  33     1.091798291039   108.50178863   118.90182306
 O     37  35  33     1.405751636033   107.38553751   237.52155980
 H     39  37  35     1.013741359399   109.85739369   193.83732728
 C     32  30  28     1.513223353841   121.54174235   164.72544328
 O     41  32  30     1.258648350262   117.65250829    10.36700588
 O     41  32  30     1.238523668855   117.30020735   191.37713393

---------------------------
INTERNAL COORDINATES (A.U.)
---------------------------
 H      0   0   0     0.000000000000     0.00000000     0.00000000
 C      1   0   0     2.040904224634     0.00000000     0.00000000
 H      2   1   0     2.071870887434   107.33928986     0.00000000
 H      2   1   3     2.064250272086   109.80296377   245.26330786
 C      2   1   3     2.858729381632   119.46792638   122.74646825
 H      5   2   1     2.065654777716   107.14053007   180.60483071
 H      5   2   1     2.067253089128   109.39536558    65.26435102
 C      5   2   1     2.868636468058   113.21560973   300.25103543
 H      8   5   2     2.061610035141   111.37866318    92.44588439
 H      8   5   2     2.054075388014   108.59200831   335.50711141
 N      8   5   2     2.738923579947   115.43010620   218.30085614
 H     11   8   5     1.940608996146   115.28496263   114.80270308
 C     11   8   5     2.486894976638   125.12068575   274.14221558
 N     13  11   8     2.545067746690   120.49727311    19.41178874
 H     14  13  11     1.896067508024   118.20669420    30.95059958
 H     14  13  11     1.912248623324   115.00552563   175.89721069
 N     13  11   8     2.488269672230   120.55832449   201.38425127
 H     17  13  11     1.919823161457   118.01807988   177.48174956
 H     17  13  11     1.916490491981   121.12126687   356.69122024
 C     19  17  13     7.201190495237   168.70800269    99.39730965
 H     20  19  17     2.036385181685    88.87817556    83.21454090
 H     20  19  17     2.042118917376   148.16244982   297.32314327
 C     20  19  17     2.515154923434    36.31448254   236.07855481
 C     23  20  19     2.864739565630   121.92847255   136.14048038
 O     24  23  20     2.372337812457   119.37807979    25.94332684
 O     24  23  20     2.357641847803   118.33967256   207.95415642
 O     23  20  19     2.586935984060   121.95025431   318.83592313
 C     27  23  20     2.952849274052   117.31588565   284.25924305
 H     28  27  23     2.060710795684   102.68419373   178.21476379
 C     28  27  23     2.775805749412   103.22582931    59.84078780
 H     30  28  27     2.036262039072   117.30094045    73.49707442
 C     30  28  27     2.515193971094   120.45693114   267.54030015
 C     32  30  28     2.761031792607   120.17204263   343.15043880
 H     33  32  30     2.045156193339   116.69812729   183.10420499
 C     33  32  30     2.509032108217   121.55453481   358.19470806
 H     35  33  32     2.047389301345   120.71622546   190.18717938
 C     35  33  32     2.823919756249   122.75541601     7.37145131
 H     37  35  33     2.063199763546   108.50178863   118.90182306
 O     37  35  33     2.656485604414   107.38553751   237.52155980
 H     39  37  35     1.915693539893   109.85739369   193.83732728
 C     32  30  28     2.859577718213   121.54174235   164.72544328
 O     41  32  30     2.378500680907   117.65250829    10.36700588
 O     41  32  30     2.340470544515   117.30020735   191.37713393

---------------------
BASIS SET INFORMATION
---------------------
There are 4 groups of distinct atoms

 Group   1 Type H   : 6s3p2d1f contracted to 4s3p2d1f pattern {3111/111/11/1}
 Group   2 Type C   : 21s6p3d2f1g contracted to 5s4p3d2f1g pattern {99111/3111/111/11/1}
 Group   3 Type N   : 21s6p3d2f1g contracted to 5s4p3d2f1g pattern {99111/3111/111/11/1}
 Group   4 Type O   : 21s6p3d2f1g contracted to 5s4p3d2f1g pattern {99111/3111/111/11/1}

Atom   0H    basis set group =>   1
Atom   1C    basis set group =>   2
Atom   2H    basis set group =>   1
Atom   3H    basis set group =>   1
Atom   4C    basis set group =>   2
Atom   5H    basis set group =>   1
Atom   6H    basis set group =>   1
Atom   7C    basis set group =>   2
Atom   8H    basis set group =>   1
Atom   9H    basis set group =>   1
Atom  10N    basis set group =>   3
Atom  11H    basis set group =>   1
Atom  12C    basis set group =>   2
Atom  13N    basis set group =>   3
Atom  14H    basis set group =>   1
Atom  15H    basis set group =>   1
Atom  16N    basis set group =>   3
Atom  17H    basis set group =>   1
Atom  18H    basis set group =>   1
Atom  19C    basis set group =>   2
Atom  20H    basis set group =>   1
Atom  21H    basis set group =>   1
Atom  22C    basis set group =>   2
Atom  23C    basis set group =>   2
Atom  24O    basis set group =>   4
Atom  25O    basis set group =>   4
Atom  26O    basis set group =>   4
Atom  27C    basis set group =>   2
Atom  28H    basis set group =>   1
Atom  29C    basis set group =>   2
Atom  30H    basis set group =>   1
Atom  31C    basis set group =>   2
Atom  32C    basis set group =>   2
Atom  33H    basis set group =>   1
Atom  34C    basis set group =>   2
Atom  35H    basis set group =>   1
Atom  36C    basis set group =>   2
Atom  37H    basis set group =>   1
Atom  38O    basis set group =>   4
Atom  39H    basis set group =>   1
Atom  40C    basis set group =>   2
Atom  41O    basis set group =>   4
Atom  42O    basis set group =>   4
---------------------------------
AUXILIARY/C BASIS SET INFORMATION
---------------------------------
There are 4 groups of distinct atoms

 Group   1 Type H   : 5s4p3d2f1g contracted to 5s4p3d2f1g pattern {11111/1111/111/11/1}
 Group   2 Type C   : 8s7p6d5f3g1h contracted to 8s7p6d5f3g1h pattern {11111111/1111111/111111/11111/111/1}
 Group   3 Type N   : 8s7p6d5f3g1h contracted to 8s7p6d5f3g1h pattern {11111111/1111111/111111/11111/111/1}
 Group   4 Type O   : 8s7p6d5f3g1h contracted to 8s7p6d5f3g1h pattern {11111111/1111111/111111/11111/111/1}

Atom   0H    basis set group =>   1
Atom   1C    basis set group =>   2
Atom   2H    basis set group =>   1
Atom   3H    basis set group =>   1
Atom   4C    basis set group =>   2
Atom   5H    basis set group =>   1
Atom   6H    basis set group =>   1
Atom   7C    basis set group =>   2
Atom   8H    basis set group =>   1
Atom   9H    basis set group =>   1
Atom  10N    basis set group =>   3
Atom  11H    basis set group =>   1
Atom  12C    basis set group =>   2
Atom  13N    basis set group =>   3
Atom  14H    basis set group =>   1
Atom  15H    basis set group =>   1
Atom  16N    basis set group =>   3
Atom  17H    basis set group =>   1
Atom  18H    basis set group =>   1
Atom  19C    basis set group =>   2
Atom  20H    basis set group =>   1
Atom  21H    basis set group =>   1
Atom  22C    basis set group =>   2
Atom  23C    basis set group =>   2
Atom  24O    basis set group =>   4
Atom  25O    basis set group =>   4
Atom  26O    basis set group =>   4
Atom  27C    basis set group =>   2
Atom  28H    basis set group =>   1
Atom  29C    basis set group =>   2
Atom  30H    basis set group =>   1
Atom  31C    basis set group =>   2
Atom  32C    basis set group =>   2
Atom  33H    basis set group =>   1
Atom  34C    basis set group =>   2
Atom  35H    basis set group =>   1
Atom  36C    basis set group =>   2
Atom  37H    basis set group =>   1
Atom  38O    basis set group =>   4
Atom  39H    basis set group =>   1
Atom  40C    basis set group =>   2
Atom  41O    basis set group =>   4
Atom  42O    basis set group =>   4


           ************************************************************
           *        Program running with 32 parallel MPI-processes    *
           *              working on a common directory               *
           ************************************************************
------------------------------------------------------------------------------
                           ORCA GTO INTEGRAL CALCULATION
------------------------------------------------------------------------------
------------------------------------------------------------------------------
                   ___                                                        
                  /   \      - P O W E R E D   B Y -                         
                 /     \                                                     
                 |  |  |   _    _      __       _____    __    __             
                 |  |  |  | |  | |    /  \     |  _  \  |  |  /  |          
                  \  \/   | |  | |   /    \    | | | |  |  | /  /          
                 / \  \   | |__| |  /  /\  \   | |_| |  |  |/  /          
                |  |  |   |  __  | /  /__\  \  |    /   |      \           
                |  |  |   | |  | | |   __   |  |    \   |  |\   \          
                \     /   | |  | | |  |  |  |  | |\  \  |  | \   \       
                 \___/    |_|  |_| |__|  |__|  |_| \__\ |__|  \__/        
                                                                              
                      - O R C A' S   B I G   F R I E N D -                    
                                      &                                       
                       - I N T E G R A L  F E E D E R -                       
                                                                              
 v1 FN, 2020, v2 2021                                                         
------------------------------------------------------------------------------


Reading SHARK input file input.SHARKINP.tmp ... ok
----------------------
SHARK INTEGRAL PACKAGE
----------------------

Number of atoms                             ...     43
Number of basis functions                   ...   2026
Number of shells                            ...    706
Maximum angular momentum                    ...      4
Integral batch strategy                     ... SHARK/LIBINT Hybrid
RI-J (if used) integral strategy            ... SPLIT-RIJ (Revised 2003 algorithm where possible)
Printlevel                                  ...      1
Contraction scheme used                     ... PARTIAL GENERAL contraction
Coulomb Range Separation                    ... NOT USED
Exchange Range Separation                   ... NOT USED
Finite Nucleus Model                        ... NOT USED
Auxiliary Coulomb fitting basis             ... NOT available
Auxiliary J/K fitting basis                 ... NOT available
Auxiliary Correlation fitting basis         ... AVAILABLE
   # of basis functions in Aux-C            ...   4136
   # of shells in Aux-C                     ...    990
   Maximum angular momentum in Aux-C        ...      5
Auxiliary 'external' fitting basis          ... NOT available
Integral threshold                          ...     2.500000e-11
Primitive cut-off                           ...     2.500000e-12
Primitive pair pre-selection threshold      ...     2.500000e-12

Calculating pre-screening integrals         ... done (  0.4 sec) Dimension = 706
Calculating pre-screening integrals (ORCA)  ... done (  0.6 sec) Dimension = 545
Organizing shell pair data                  ... done (  1.8 sec)
Shell pair information
Total number of shell pairs                 ...    249571
Shell pairs after pre-screening             ...    113018
Total number of primitive shell pairs       ...    314157
Primitive shell pairs kept                  ...    127988
          la=0 lb=0:  23702 shell pairs
          la=1 lb=0:  26833 shell pairs
          la=1 lb=1:   7094 shell pairs
          la=2 lb=0:  16701 shell pairs
          la=2 lb=1:   9270 shell pairs
          la=2 lb=2:   3091 shell pairs
          la=3 lb=0:   9323 shell pairs
          la=3 lb=1:   5371 shell pairs
          la=3 lb=2:   3434 shell pairs
          la=3 lb=3:   1001 shell pairs
          la=4 lb=0:   3288 shell pairs
          la=4 lb=1:   1883 shell pairs
          la=4 lb=2:   1204 shell pairs
          la=4 lb=3:    686 shell pairs
          la=4 lb=4:    137 shell pairs

Calculating one electron integrals          ... done (  0.4 sec)
Calculating RI/C V-Matrix + Cholesky decomp.... done (  1.0 sec)
Calculating Nuclear repulsion               ... done (  0.0 sec) ENN=   2021.724928861917 Eh

SHARK setup successfully completed in   6.9 seconds

Maximum memory used throughout the entire GTOINT-calculation: 174.0 MB


           ************************************************************
           *        Program running with 32 parallel MPI-processes    *
           *              working on a common directory               *
           ************************************************************
-------------------------------------------------------------------------------
                                 ORCA SCF
-------------------------------------------------------------------------------

------------
SCF SETTINGS
------------
Hamiltonian:
 Ab initio Hamiltonian  Method          .... Hartree-Fock(GTOs)


General Settings:
 Integral files         IntName         .... input
 Hartree-Fock type      HFTyp           .... RHF
 Total Charge           Charge          ....   -1
 Multiplicity           Mult            ....    1
 Number of Electrons    NEL             ....  174
 Basis Dimension        Dim             .... 1865
 Nuclear Repulsion      ENuc            ....   2021.7249288619 Eh

Convergence Acceleration:
 DIIS                   CNVDIIS         .... on
   Start iteration      DIISMaxIt       ....    12
   Startup error        DIISStart       ....  0.200000
   # of expansion vecs  DIISMaxEq       ....     5
   Bias factor          DIISBfac        ....   1.050
   Max. coefficient     DIISMaxC        ....  10.000
 Trust-Rad. Augm. Hess. CNVTRAH         .... auto
   Auto Start mean grad. ratio tolernc. ....  1.125000
   Auto Start start iteration           ....    20
   Auto Start num. interpolation iter.  ....    10
   Max. Number of Micro iterations      ....    16
   Max. Number of Macro iterations      .... Maxiter - #DIIS iter
   Number of Davidson start vectors     ....     2
   Converg. threshold I  (grad. norm)   ....   1.000e-05
   Converg. threshold II (energy diff.) ....   1.000e-08
   Grad. Scal. Fac. for Micro threshold ....   0.100
   Minimum threshold for Micro iter.    ....   0.010
   NR start threshold (gradient norm)   ....   0.001
   Initial trust radius                 ....   0.400
   Minimum AH scaling param. (alpha)    ....   1.000
   Maximum AH scaling param. (alpha)    .... 1000.000
   Orbital update algorithm             .... Taylor
   White noise on init. David. guess    .... on
   Maximum white noise                  ....   0.010
   Quad. conv. algorithm                .... NR
 SOSCF                  CNVSOSCF        .... on
   Start iteration      SOSCFMaxIt      ....   150
   Startup grad/error   SOSCFStart      ....  0.003300
 Level Shifting         CNVShift        .... on
   Level shift para.    LevelShift      ....    0.2500
   Turn off err/grad.   ShiftErr        ....    0.0010
 Zerner damping         CNVZerner       .... off
 Static damping         CNVDamp         .... on
   Fraction old density DampFac         ....    0.7000
   Max. Damping (<1)    DampMax         ....    0.9800
   Min. Damping (>=0)   DampMin         ....    0.0000
   Turn off err/grad.   DampErr         ....    0.1000
 Fernandez-Rico         CNVRico         .... off

SCF Procedure:
 Maximum # iterations   MaxIter         ....   125
 SCF integral mode      SCFMode         .... Direct
   Integral package                     .... SHARK and LIBINT hybrid scheme
 Reset frequency        DirectResetFreq ....    20
 Integral Threshold     Thresh          ....  2.500e-11 Eh
 Primitive CutOff       TCut            ....  2.500e-12 Eh

Convergence Tolerance:
 Convergence Check Mode ConvCheckMode   .... Total+1el-Energy
 Convergence forced     ConvForced      .... 1
 Energy Change          TolE            ....  1.000e-08 Eh
 1-El. energy change                    ....  1.000e-05 Eh
 Orbital Gradient       TolG            ....  1.000e-05
 Orbital Rotation angle TolX            ....  1.000e-05
 DIIS Error             TolErr          ....  5.000e-07


Diagonalization of the overlap matrix:
Smallest eigenvalue                        ... 8.173e-06
Time for diagonalization                   ...    0.501 sec
Threshold for overlap eigenvalues          ... 1.000e-08
Number of eigenvalues below threshold      ... 0
Time for construction of square roots      ...    0.396 sec
Total time needed                          ...    0.924 sec

Time for model grid setup =    0.554 sec

------------------------------
INITIAL GUESS: MODEL POTENTIAL
------------------------------
Loading Hartree-Fock densities                     ... done
Calculating cut-offs                               ... done
Initializing the effective Hamiltonian             ... done
Setting up the integral package (SHARK)            ... done
Starting the Coulomb interaction                   ... done (   0.7 sec)
Reading the grid                                   ... done
Mapping shells                                     ... done
Starting the XC term evaluation                    ... done (   0.4 sec)
Transforming the Hamiltonian                       ... done (   0.3 sec)
Diagonalizing the Hamiltonian                      ... done (   0.4 sec)
Back transforming the eigenvectors                 ... done (   0.1 sec)
Now organizing SCF variables                       ... done
                      ------------------
                      INITIAL GUESS DONE (   3.2 sec)
                      ------------------
--------------
SCF ITERATIONS
--------------
ITER       Energy         Delta-E        Max-DP      RMS-DP      [F,P]     Damp
               ***  Starting incremental Fock matrix formation  ***
  0  -1153.5488745875   0.000000000000 0.23425151  0.00044938  0.3863315 0.7000
  1  -1153.9719748589  -0.423100271486 0.27193275  0.00045071  0.2332827 0.7000
                               ***Turning on DIIS***
  2  -1154.2237180102  -0.251743151273 0.16953972  0.00029181  0.1337177 0.7000
  3  -1156.9613425051  -2.737624494918 0.15876440  0.00044632  0.0790574 0.0000
  4  -1154.6576200908   2.303722414316 0.10439831  0.00013363  0.0085030 0.0000
  5  -1154.7630227181  -0.105402627295 0.04310153  0.00006062  0.0045548 0.0000
                      *** Initiating the SOSCF procedure ***
                           *** Shutting down DIIS ***
                      *** Re-Reading the Fockian *** 
                      *** Removing any level shift *** 
ITER      Energy       Delta-E        Grad      Rot      Max-DP    RMS-DP
  6  -1154.73182339   0.0311993254  0.001459  0.001459  0.024007  0.000033
               *** Restarting incremental Fock matrix formation ***
  7  -1154.75110922  -0.0192858315  0.000674  0.001318  0.013372  0.000021
  8  -1154.75114314  -0.0000339153  0.000293  0.001278  0.010167  0.000015
  9  -1154.75115375  -0.0000106103  0.000060  0.000116  0.002748  0.000004
 10  -1154.75115460  -0.0000008514  0.000027  0.000038  0.000603  0.000001
 11  -1154.75115466  -0.0000000584  0.000008  0.000020  0.000047  0.000000
 12  -1154.75115468  -0.0000000202  0.000005  0.000011  0.000079  0.000000
                  ***Gradient check signals convergence***
              ***Rediagonalizing the Fockian in SOSCF/NRSCF***

               *****************************************************
               *                     SUCCESS                       *
               *           SCF CONVERGED AFTER  13 CYCLES          *
               *****************************************************


----------------
TOTAL SCF ENERGY
----------------

Total Energy       :        -1154.75115469 Eh          -31422.37640 eV

Components:
Nuclear Repulsion  :         2021.72492886 Eh           55013.93217 eV
Electronic Energy  :        -3176.47608355 Eh          -86436.30857 eV
One Electron Energy:        -5623.47129549 Eh         -153022.43346 eV
Two Electron Energy:         2446.99521194 Eh           66586.12489 eV

Virial components:
Potential Energy   :        -2308.70907611 Eh          -62823.16783 eV
Kinetic Energy     :         1153.95792143 Eh           31400.79143 eV
Virial Ratio       :            2.00068740


---------------
SCF CONVERGENCE
---------------

  Last Energy change         ...   -9.1591e-09  Tolerance :   1.0000e-08
  Last MAX-Density change    ...    4.9573e-05  Tolerance :   1.0000e-07
  Last RMS-Density change    ...    8.5926e-08  Tolerance :   5.0000e-09
  Last Orbital Gradient      ...    1.2225e-06  Tolerance :   1.0000e-05
  Last Orbital Rotation      ...    3.6992e-06  Tolerance :   1.0000e-05

             **** THE GBW FILE WAS UPDATED (input.gbw) ****
             **** DENSITY input.scfp WAS UPDATED ****
             **** ENERGY FILE WAS UPDATED (input.en.tmp) ****
             **** THE GBW FILE WAS UPDATED (input.gbw) ****
             **** DENSITY input.scfp WAS UPDATED ****
----------------
ORBITAL ENERGIES
----------------

  NO   OCC          E(Eh)            E(eV) 
   0   2.0000     -20.470131      -557.0206 
   1   2.0000     -20.454633      -556.5989 
   2   2.0000     -20.350277      -553.7592 
   3   2.0000     -20.320498      -552.9489 
   4   2.0000     -20.298179      -552.3415 
   5   2.0000     -20.289518      -552.1059 
   6   2.0000     -15.583453      -424.0473 
   7   2.0000     -15.556868      -423.3239 
   8   2.0000     -15.533635      -422.6917 
   9   2.0000     -11.361432      -309.1603 
  10   2.0000     -11.219869      -305.3082 
  11   2.0000     -11.189778      -304.4893 
  12   2.0000     -11.188380      -304.4513 
  13   2.0000     -11.180007      -304.2235 
  14   2.0000     -11.175707      -304.1065 
  15   2.0000     -11.174459      -304.0725 
  16   2.0000     -11.142012      -303.1896 
  17   2.0000     -11.139656      -303.1255 
  18   2.0000     -11.093809      -301.8779 
  19   2.0000     -11.091584      -301.8173 
  20   2.0000     -11.090183      -301.7792 
  21   2.0000     -11.081961      -301.5555 
  22   2.0000     -11.080789      -301.5236 
  23   2.0000      -1.325681       -36.0736 
  24   2.0000      -1.269820       -34.5536 
  25   2.0000      -1.259445       -34.2712 
  26   2.0000      -1.224095       -33.3093 
  27   2.0000      -1.185288       -32.2533 
  28   2.0000      -1.185221       -32.2515 
  29   2.0000      -1.175784       -31.9947 
  30   2.0000      -1.109973       -30.2039 
  31   2.0000      -1.073815       -29.2200 
  32   2.0000      -1.026254       -27.9258 
  33   2.0000      -1.001554       -27.2537 
  34   2.0000      -0.909572       -24.7507 
  35   2.0000      -0.908505       -24.7217 
  36   2.0000      -0.890045       -24.2194 
  37   2.0000      -0.859943       -23.4003 
  38   2.0000      -0.826184       -22.4816 
  39   2.0000      -0.788036       -21.4435 
  40   2.0000      -0.754015       -20.5178 
  41   2.0000      -0.741188       -20.1687 
  42   2.0000      -0.717532       -19.5250 
  43   2.0000      -0.700913       -19.0728 
  44   2.0000      -0.693120       -18.8607 
  45   2.0000      -0.658132       -17.9087 
  46   2.0000      -0.641967       -17.4688 
  47   2.0000      -0.614259       -16.7148 
  48   2.0000      -0.607006       -16.5175 
  49   2.0000      -0.598484       -16.2856 
  50   2.0000      -0.597629       -16.2623 
  51   2.0000      -0.579702       -15.7745 
  52   2.0000      -0.563035       -15.3210 
  53   2.0000      -0.559385       -15.2217 
  54   2.0000      -0.542265       -14.7558 
  55   2.0000      -0.533464       -14.5163 
  56   2.0000      -0.520536       -14.1645 
  57   2.0000      -0.504333       -13.7236 
  58   2.0000      -0.492648       -13.4056 
  59   2.0000      -0.486644       -13.2423 
  60   2.0000      -0.478675       -13.0254 
  61   2.0000      -0.471353       -12.8262 
  62   2.0000      -0.464517       -12.6401 
  63   2.0000      -0.462646       -12.5892 
  64   2.0000      -0.448870       -12.2144 
  65   2.0000      -0.439115       -11.9489 
  66   2.0000      -0.437370       -11.9015 
  67   2.0000      -0.434322       -11.8185 
  68   2.0000      -0.421410       -11.4671 
  69   2.0000      -0.418146       -11.3783 
  70   2.0000      -0.412802       -11.2329 
  71   2.0000      -0.403881       -10.9902 
  72   2.0000      -0.390341       -10.6217 
  73   2.0000      -0.381042       -10.3687 
  74   2.0000      -0.369478       -10.0540 
  75   2.0000      -0.357400        -9.7254 
  76   2.0000      -0.351922        -9.5763 
  77   2.0000      -0.326581        -8.8867 
  78   2.0000      -0.288903        -7.8615 
  79   2.0000      -0.273322        -7.4375 
  80   2.0000      -0.249470        -6.7884 
  81   2.0000      -0.242996        -6.6123 
  82   2.0000      -0.224436        -6.1072 
  83   2.0000      -0.214748        -5.8436 
  84   2.0000      -0.206255        -5.6125 
  85   2.0000      -0.200112        -5.4453 
  86   2.0000      -0.178145        -4.8476 
  87   0.0000       0.116509         3.1704 
  88   0.0000       0.144615         3.9352 
  89   0.0000       0.166134         4.5207 
  90   0.0000       0.169937         4.6242 
  91   0.0000       0.188501         5.1294 
  92   0.0000       0.191460         5.2099 
  93   0.0000       0.212225         5.7749 
  94   0.0000       0.218113         5.9352 
  95   0.0000       0.222982         6.0676 
  96   0.0000       0.233838         6.3631 
  97   0.0000       0.236707         6.4411 
  98   0.0000       0.244530         6.6540 
  99   0.0000       0.252220         6.8632 
 100   0.0000       0.254874         6.9355 
 101   0.0000       0.261119         7.1054 
 102   0.0000       0.267432         7.2772 
 103   0.0000       0.278237         7.5712 
 104   0.0000       0.282987         7.7005 
 105   0.0000       0.301001         8.1906 
 106   0.0000       0.308558         8.3963 
 107   0.0000       0.310880         8.4595 
 108   0.0000       0.319514         8.6944 
 109   0.0000       0.324791         8.8380 
 110   0.0000       0.329664         8.9706 
 111   0.0000       0.333535         9.0759 
 112   0.0000       0.336454         9.1554 
 113   0.0000       0.346745         9.4354 
 114   0.0000       0.347623         9.4593 
 115   0.0000       0.350609         9.5406 
 116   0.0000       0.358592         9.7578 
 117   0.0000       0.370418        10.0796 
 118   0.0000       0.382887        10.4189 
 119   0.0000       0.388974        10.5845 
 120   0.0000       0.396710        10.7950 
 121   0.0000       0.398291        10.8381 
 122   0.0000       0.408757        11.1228 
 123   0.0000       0.411041        11.1850 
 124   0.0000       0.418172        11.3790 
 125   0.0000       0.422147        11.4872 
 126   0.0000       0.432006        11.7555 
 127   0.0000       0.437048        11.8927 
 128   0.0000       0.448437        12.2026 
 129   0.0000       0.450226        12.2513 
 130   0.0000       0.453103        12.3295 
 131   0.0000       0.454472        12.3668 
 132   0.0000       0.462787        12.5931 
 133   0.0000       0.467683        12.7263 
 134   0.0000       0.470599        12.8057 
 135   0.0000       0.471951        12.8424 
 136   0.0000       0.473417        12.8823 
 137   0.0000       0.478359        13.0168 
 138   0.0000       0.484008        13.1705 
 139   0.0000       0.485761        13.2182 
 140   0.0000       0.493241        13.4218 
 141   0.0000       0.497845        13.5470 
 142   0.0000       0.500754        13.6262 
 143   0.0000       0.507447        13.8083 
 144   0.0000       0.511234        13.9114 
 145   0.0000       0.514347        13.9961 
 146   0.0000       0.514871        14.0104 
 147   0.0000       0.519313        14.1312 
 148   0.0000       0.531767        14.4701 
 149   0.0000       0.534431        14.5426 
 150   0.0000       0.539241        14.6735 
 151   0.0000       0.541894        14.7457 
 152   0.0000       0.546959        14.8835 
 153   0.0000       0.549765        14.9599 
 154   0.0000       0.553136        15.0516 
 155   0.0000       0.554177        15.0799 
 156   0.0000       0.557109        15.1597 
 157   0.0000       0.569493        15.4967 
 158   0.0000       0.571390        15.5483 
 159   0.0000       0.573345        15.6015 
 160   0.0000       0.575106        15.6494 
 161   0.0000       0.584152        15.8956 
 162   0.0000       0.589365        16.0374 
 163   0.0000       0.591675        16.1003 
 164   0.0000       0.594810        16.1856 
 165   0.0000       0.599085        16.3019 
 166   0.0000       0.604176        16.4405 
 167   0.0000       0.607179        16.5222 
 168   0.0000       0.608835        16.5672 
 169   0.0000       0.611403        16.6371 
 170   0.0000       0.617768        16.8103 
 171   0.0000       0.622878        16.9494 
 172   0.0000       0.625819        17.0294 
 173   0.0000       0.629347        17.1254 
 174   0.0000       0.632903        17.2222 
 175   0.0000       0.633321        17.2335 
 176   0.0000       0.636391        17.3171 
 177   0.0000       0.647250        17.6126 
 178   0.0000       0.654662        17.8143 
 179   0.0000       0.656621        17.8676 
 180   0.0000       0.661046        17.9880 
 181   0.0000       0.662605        18.0304 
 182   0.0000       0.665710        18.1149 
 183   0.0000       0.675991        18.3946 
 184   0.0000       0.685006        18.6400 
 185   0.0000       0.688525        18.7357 
 186   0.0000       0.691584        18.8190 
 187   0.0000       0.698154        18.9977 
 188   0.0000       0.703395        19.1404 
 189   0.0000       0.706635        19.2285 
 190   0.0000       0.716155        19.4876 
 191   0.0000       0.721616        19.6362 
 192   0.0000       0.723135        19.6775 
 193   0.0000       0.729728        19.8569 
 194   0.0000       0.733843        19.9689 
 195   0.0000       0.739866        20.1328 
 196   0.0000       0.744489        20.2586 
 197   0.0000       0.748704        20.3733 
 198   0.0000       0.754756        20.5380 
 199   0.0000       0.760374        20.6908 
 200   0.0000       0.766276        20.8514 
 201   0.0000       0.771828        21.0025 
 202   0.0000       0.776417        21.1274 
 203   0.0000       0.777481        21.1563 
 204   0.0000       0.783753        21.3270 
 205   0.0000       0.793519        21.5927 
 206   0.0000       0.796981        21.6869 
 207   0.0000       0.803010        21.8510 
 208   0.0000       0.806438        21.9443 
 209   0.0000       0.814644        22.1676 
 210   0.0000       0.818395        22.2697 
 211   0.0000       0.820668        22.3315 
 212   0.0000       0.824075        22.4242 
 213   0.0000       0.827124        22.5072 
 214   0.0000       0.828517        22.5451 
 215   0.0000       0.836098        22.7514 
 216   0.0000       0.841220        22.8908 
 217   0.0000       0.841851        22.9079 
 218   0.0000       0.848196        23.0806 
 219   0.0000       0.855355        23.2754 
 220   0.0000       0.858564        23.3627 
 221   0.0000       0.859920        23.3996 
 222   0.0000       0.865864        23.5614 
 223   0.0000       0.874605        23.7992 
 224   0.0000       0.876102        23.8400 
 225   0.0000       0.878199        23.8970 
 226   0.0000       0.887935        24.1619 
 227   0.0000       0.891526        24.2597 
 228   0.0000       0.896476        24.3943 
 229   0.0000       0.899393        24.4737 
 230   0.0000       0.903926        24.5971 
 231   0.0000       0.906801        24.6753 
 232   0.0000       0.914179        24.8761 
 233   0.0000       0.918769        25.0010 
 234   0.0000       0.922678        25.1073 
 235   0.0000       0.929255        25.2863 
 236   0.0000       0.930399        25.3174 
 237   0.0000       0.933441        25.4002 
 238   0.0000       0.937064        25.4988 
 239   0.0000       0.941881        25.6299 
 240   0.0000       0.948789        25.8179 
 241   0.0000       0.953072        25.9344 
 242   0.0000       0.959033        26.0966 
 243   0.0000       0.963893        26.2289 
 244   0.0000       0.968940        26.3662 
 245   0.0000       0.971670        26.4405 
 246   0.0000       0.971939        26.4478 
 247   0.0000       0.976594        26.5745 
 248   0.0000       0.981397        26.7052 
 249   0.0000       0.982890        26.7458 
 250   0.0000       0.983538        26.7634 
 251   0.0000       0.994094        27.0507 
 252   0.0000       1.000354        27.2210 
 253   0.0000       1.004731        27.3401 
 254   0.0000       1.011441        27.5227 
 255   0.0000       1.021150        27.7869 
 256   0.0000       1.026751        27.9393 
 257   0.0000       1.027132        27.9497 
 258   0.0000       1.032945        28.1079 
 259   0.0000       1.039448        28.2848 
 260   0.0000       1.041548        28.3420 
 261   0.0000       1.047739        28.5104 
 262   0.0000       1.053871        28.6773 
 263   0.0000       1.057188        28.7675 
 264   0.0000       1.060288        28.8519 
 265   0.0000       1.064485        28.9661 
 266   0.0000       1.068398        29.0726 
 267   0.0000       1.073779        29.2190 
 268   0.0000       1.076869        29.3031 
 269   0.0000       1.079893        29.3854 
 270   0.0000       1.082498        29.4563 
 271   0.0000       1.085294        29.5324 
 272   0.0000       1.097781        29.8721 
 273   0.0000       1.100286        29.9403 
 274   0.0000       1.103752        30.0346 
 275   0.0000       1.106333        30.1048 
 276   0.0000       1.109315        30.1860 
 277   0.0000       1.113679        30.3047 
 278   0.0000       1.125038        30.6138 
 279   0.0000       1.127553        30.6823 
 280   0.0000       1.133094        30.8331 
 281   0.0000       1.137297        30.9474 
 282   0.0000       1.138875        30.9904 
 283   0.0000       1.142277        31.0829 
 284   0.0000       1.145947        31.1828 
 285   0.0000       1.148978        31.2653 
 286   0.0000       1.154233        31.4083 
 287   0.0000       1.159377        31.5483 
 288   0.0000       1.165693        31.7201 
 289   0.0000       1.173380        31.9293 
 290   0.0000       1.180781        32.1307 
 291   0.0000       1.181282        32.1443 
 292   0.0000       1.185038        32.2465 
 293   0.0000       1.186842        32.2956 
 294   0.0000       1.193116        32.4663 
 295   0.0000       1.198545        32.6141 
 296   0.0000       1.202176        32.7129 
 297   0.0000       1.203390        32.7459 
 298   0.0000       1.208563        32.8867 
 299   0.0000       1.212673        32.9985 
 300   0.0000       1.216283        33.0968 
 301   0.0000       1.218141        33.1473 
 302   0.0000       1.227013        33.3887 
 303   0.0000       1.229008        33.4430 
 304   0.0000       1.231582        33.5130 
 305   0.0000       1.240479        33.7551 
 306   0.0000       1.242596        33.8128 
 307   0.0000       1.249807        34.0090 
 308   0.0000       1.259874        34.2829 
 309   0.0000       1.264457        34.4076 
 310   0.0000       1.268795        34.5257 
 311   0.0000       1.272552        34.6279 
 312   0.0000       1.274637        34.6846 
 313   0.0000       1.283632        34.9294 
 314   0.0000       1.284493        34.9528 
 315   0.0000       1.288132        35.0519 
 316   0.0000       1.290399        35.1136 
 317   0.0000       1.295516        35.2528 
 318   0.0000       1.297942        35.3188 
 319   0.0000       1.303260        35.4635 
 320   0.0000       1.309376        35.6299 
 321   0.0000       1.314207        35.7614 
 322   0.0000       1.317347        35.8468 
 323   0.0000       1.322673        35.9918 
 324   0.0000       1.332971        36.2720 
 325   0.0000       1.337036        36.3826 
 326   0.0000       1.341375        36.5007 
 327   0.0000       1.343865        36.5684 
 328   0.0000       1.349272        36.7156 
 329   0.0000       1.355542        36.8862 
 330   0.0000       1.362292        37.0699 
 331   0.0000       1.367069        37.1998 
 332   0.0000       1.369670        37.2706 
 333   0.0000       1.371312        37.3153 
 334   0.0000       1.380021        37.5523 
 335   0.0000       1.381479        37.5919 
 336   0.0000       1.385998        37.7149 
 337   0.0000       1.390920        37.8489 
 338   0.0000       1.397730        38.0342 
 339   0.0000       1.400891        38.1202 
 340   0.0000       1.403914        38.2024 
 341   0.0000       1.404119        38.2080 
 342   0.0000       1.415744        38.5244 
 343   0.0000       1.421012        38.6677 
 344   0.0000       1.428068        38.8597 
 345   0.0000       1.429594        38.9012 
 346   0.0000       1.436512        39.0895 
 347   0.0000       1.443623        39.2830 
 348   0.0000       1.444635        39.3105 
 349   0.0000       1.446913        39.3725 
 350   0.0000       1.454369        39.5754 
 351   0.0000       1.464114        39.8406 
 352   0.0000       1.468026        39.9470 
 353   0.0000       1.473047        40.0836 
 354   0.0000       1.481864        40.3236 
 355   0.0000       1.483991        40.3814 
 356   0.0000       1.490983        40.5717 
 357   0.0000       1.502409        40.8826 
 358   0.0000       1.503335        40.9078 
 359   0.0000       1.516100        41.2552 
 360   0.0000       1.521234        41.3949 
 361   0.0000       1.523656        41.4608 
 362   0.0000       1.535136        41.7732 
 363   0.0000       1.545216        42.0475 
 364   0.0000       1.548600        42.1395 
 365   0.0000       1.555700        42.3327 
 366   0.0000       1.563906        42.5560 
 367   0.0000       1.569940        42.7202 
 368   0.0000       1.577749        42.9327 
 369   0.0000       1.593840        43.3706 
 370   0.0000       1.598176        43.4886 
 371   0.0000       1.602790        43.6141 
 372   0.0000       1.607065        43.7305 
 373   0.0000       1.617953        44.0267 
 374   0.0000       1.625659        44.2364 
 375   0.0000       1.630545        44.3694 
 376   0.0000       1.639582        44.6153 
 377   0.0000       1.646889        44.8141 
 378   0.0000       1.652176        44.9580 
 379   0.0000       1.655465        45.0475 
 380   0.0000       1.667497        45.3749 
 381   0.0000       1.669833        45.4385 
 382   0.0000       1.672372        45.5076 
 383   0.0000       1.684642        45.8414 
 384   0.0000       1.693129        46.0724 
 385   0.0000       1.697260        46.1848 
 386   0.0000       1.707861        46.4732 
 387   0.0000       1.714471        46.6531 
 388   0.0000       1.719906        46.8010 
 389   0.0000       1.729653        47.0663 
 390   0.0000       1.739258        47.3276 
 391   0.0000       1.742921        47.4273 
 392   0.0000       1.745557        47.4990 
 393   0.0000       1.756134        47.7868 
 394   0.0000       1.758253        47.8445 
 395   0.0000       1.772844        48.2415 
 396   0.0000       1.773091        48.2483 
 397   0.0000       1.775312        48.3087 
 398   0.0000       1.788356        48.6636 
 399   0.0000       1.791178        48.7404 
 400   0.0000       1.793588        48.8060 
 401   0.0000       1.803180        49.0670 
 402   0.0000       1.806616        49.1605 
 403   0.0000       1.813363        49.3441 
 404   0.0000       1.823717        49.6259 
 405   0.0000       1.827310        49.7236 
 406   0.0000       1.834311        49.9141 
 407   0.0000       1.844972        50.2042 
 408   0.0000       1.851750        50.3887 
 409   0.0000       1.858298        50.5669 
 410   0.0000       1.863309        50.7032 
 411   0.0000       1.868544        50.8457 
 412   0.0000       1.873108        50.9699 
 413   0.0000       1.885849        51.3166 
 414   0.0000       1.892714        51.5034 
 415   0.0000       1.897486        51.6332 
 416   0.0000       1.905682        51.8562 
 417   0.0000       1.906482        51.8780 
 418   0.0000       1.913382        52.0658 
 419   0.0000       1.917400        52.1751 
 420   0.0000       1.925571        52.3974 
 421   0.0000       1.932097        52.5750 
 422   0.0000       1.937496        52.7220 
 423   0.0000       1.942229        52.8507 
 424   0.0000       1.952874        53.1404 
 425   0.0000       1.958011        53.2802 
 426   0.0000       1.964377        53.4534 
 427   0.0000       1.968579        53.5678 
 428   0.0000       1.974506        53.7290 
 429   0.0000       1.981574        53.9214 
 430   0.0000       1.986643        54.0593 
 431   0.0000       1.988981        54.1229 
 432   0.0000       1.995669        54.3049 
 433   0.0000       2.000791        54.4443 
 434   0.0000       2.007374        54.6234 
 435   0.0000       2.008936        54.6659 
 436   0.0000       2.011582        54.7379 
 437   0.0000       2.017667        54.9035 
 438   0.0000       2.024059        55.0774 
 439   0.0000       2.031156        55.2706 
 440   0.0000       2.035397        55.3860 
 441   0.0000       2.045126        55.6507 
 442   0.0000       2.049331        55.7651 
 443   0.0000       2.057910        55.9986 
 444   0.0000       2.060890        56.0797 
 445   0.0000       2.066064        56.2205 
 446   0.0000       2.067087        56.2483 
 447   0.0000       2.072327        56.3909 
 448   0.0000       2.081753        56.6474 
 449   0.0000       2.086172        56.7676 
 450   0.0000       2.088708        56.8366 
 451   0.0000       2.098519        57.1036 
 452   0.0000       2.101259        57.1782 
 453   0.0000       2.103688        57.2443 
 454   0.0000       2.106326        57.3160 
 455   0.0000       2.108438        57.3735 
 456   0.0000       2.112590        57.4865 
 457   0.0000       2.125115        57.8273 
 458   0.0000       2.126175        57.8562 
 459   0.0000       2.133360        58.0517 
 460   0.0000       2.137793        58.1723 
 461   0.0000       2.142181        58.2917 
 462   0.0000       2.144888        58.3654 
 463   0.0000       2.150032        58.5053 
 464   0.0000       2.151904        58.5563 
 465   0.0000       2.157699        58.7140 
 466   0.0000       2.163755        58.8788 
 467   0.0000       2.167962        58.9933 
 468   0.0000       2.175766        59.2056 
 469   0.0000       2.180903        59.3454 
 470   0.0000       2.186709        59.5034 
 471   0.0000       2.196387        59.7667 
 472   0.0000       2.196904        59.7808 
 473   0.0000       2.200398        59.8759 
 474   0.0000       2.208383        60.0932 
 475   0.0000       2.213457        60.2312 
 476   0.0000       2.214357        60.2557 
 477   0.0000       2.222219        60.4697 
 478   0.0000       2.223872        60.5146 
 479   0.0000       2.225371        60.5554 
 480   0.0000       2.227493        60.6132 
 481   0.0000       2.232906        60.7605 
 482   0.0000       2.241300        60.9889 
 483   0.0000       2.242963        61.0341 
 484   0.0000       2.253308        61.3156 
 485   0.0000       2.256723        61.4085 
 486   0.0000       2.260037        61.4987 
 487   0.0000       2.266064        61.6627 
 488   0.0000       2.273456        61.8639 
 489   0.0000       2.275964        61.9321 
 490   0.0000       2.277272        61.9677 
 491   0.0000       2.280624        62.0589 
 492   0.0000       2.285647        62.1956 
 493   0.0000       2.295140        62.4539 
 494   0.0000       2.299069        62.5609 
 495   0.0000       2.303462        62.6804 
 496   0.0000       2.306259        62.7565 
 497   0.0000       2.310438        62.8702 
 498   0.0000       2.311332        62.8945 
 499   0.0000       2.319715        63.1227 
 500   0.0000       2.322305        63.1931 
 501   0.0000       2.324763        63.2600 
 502   0.0000       2.332002        63.4570 
 503   0.0000       2.338217        63.6261 
 504   0.0000       2.341629        63.7190 
 505   0.0000       2.347151        63.8692 
 506   0.0000       2.351774        63.9950 
 507   0.0000       2.358997        64.1916 
 508   0.0000       2.362236        64.2797 
 509   0.0000       2.368832        64.4592 
 510   0.0000       2.370621        64.5079 
 511   0.0000       2.373032        64.5735 
 512   0.0000       2.379447        64.7480 
 513   0.0000       2.381292        64.7983 
 514   0.0000       2.385479        64.9122 
 515   0.0000       2.393512        65.1308 
 516   0.0000       2.398143        65.2568 
 517   0.0000       2.402228        65.3679 
 518   0.0000       2.406038        65.4716 
 519   0.0000       2.410376        65.5897 
 520   0.0000       2.415354        65.7251 
 521   0.0000       2.421526        65.8931 
 522   0.0000       2.424493        65.9738 
 523   0.0000       2.434653        66.2503 
 524   0.0000       2.438471        66.3542 
 525   0.0000       2.445106        66.5347 
 526   0.0000       2.447401        66.5972 
 527   0.0000       2.453687        66.7682 
 528   0.0000       2.456227        66.8373 
 529   0.0000       2.461886        66.9913 
 530   0.0000       2.467392        67.1411 
 531   0.0000       2.474260        67.3280 
 532   0.0000       2.475293        67.3561 
 533   0.0000       2.478979        67.4564 
 534   0.0000       2.485500        67.6339 
 535   0.0000       2.489649        67.7468 
 536   0.0000       2.494804        67.8871 
 537   0.0000       2.499902        68.0258 
 538   0.0000       2.505738        68.1846 
 539   0.0000       2.513617        68.3990 
 540   0.0000       2.515076        68.4387 
 541   0.0000       2.520593        68.5888 
 542   0.0000       2.527583        68.7790 
 543   0.0000       2.532874        68.9230 
 544   0.0000       2.536536        69.0226 
 545   0.0000       2.537206        69.0409 
 546   0.0000       2.542889        69.1955 
 547   0.0000       2.549400        69.3727 
 548   0.0000       2.552367        69.4534 
 549   0.0000       2.558937        69.6322 
 550   0.0000       2.563999        69.7700 
 551   0.0000       2.571439        69.9724 
 552   0.0000       2.576001        70.0966 
 553   0.0000       2.577942        70.1494 
 554   0.0000       2.582074        70.2618 
 555   0.0000       2.584649        70.3319 
 556   0.0000       2.589858        70.4736 
 557   0.0000       2.592731        70.5518 
 558   0.0000       2.597118        70.6712 
 559   0.0000       2.598754        70.7157 
 560   0.0000       2.605992        70.9126 
 561   0.0000       2.609223        71.0006 
 562   0.0000       2.614661        71.1485 
 563   0.0000       2.625330        71.4389 
 564   0.0000       2.625822        71.4523 
 565   0.0000       2.629614        71.5554 
 566   0.0000       2.632017        71.6208 
 567   0.0000       2.633663        71.6656 
 568   0.0000       2.642771        71.9135 
 569   0.0000       2.646637        72.0187 
 570   0.0000       2.651916        72.1623 
 571   0.0000       2.656199        72.2789 
 572   0.0000       2.663352        72.4735 
 573   0.0000       2.669484        72.6403 
 574   0.0000       2.674002        72.7633 
 575   0.0000       2.676338        72.8269 
 576   0.0000       2.680570        72.9420 
 577   0.0000       2.682305        72.9892 
 578   0.0000       2.689030        73.1722 
 579   0.0000       2.697648        73.4067 
 580   0.0000       2.704054        73.5811 
 581   0.0000       2.706816        73.6562 
 582   0.0000       2.714292        73.8596 
 583   0.0000       2.717931        73.9587 
 584   0.0000       2.722215        74.0752 
 585   0.0000       2.727025        74.2061 
 586   0.0000       2.732628        74.3586 
 587   0.0000       2.732925        74.3667 
 588   0.0000       2.737854        74.5008 
 589   0.0000       2.739635        74.5493 
 590   0.0000       2.748475        74.7898 
 591   0.0000       2.749790        74.8256 
 592   0.0000       2.752834        74.9084 
 593   0.0000       2.754689        74.9589 
 594   0.0000       2.759066        75.0780 
 595   0.0000       2.762398        75.1687 
 596   0.0000       2.770945        75.4012 
 597   0.0000       2.773251        75.4640 
 598   0.0000       2.782870        75.7257 
 599   0.0000       2.784146        75.7605 
 600   0.0000       2.792224        75.9803 
 601   0.0000       2.792560        75.9894 
 602   0.0000       2.797983        76.1370 
 603   0.0000       2.806788        76.3766 
 604   0.0000       2.813613        76.5623 
 605   0.0000       2.815216        76.6059 
 606   0.0000       2.821661        76.7813 
 607   0.0000       2.826690        76.9182 
 608   0.0000       2.829513        76.9950 
 609   0.0000       2.835605        77.1607 
 610   0.0000       2.842013        77.3351 
 611   0.0000       2.844744        77.4094 
 612   0.0000       2.848424        77.5096 
 613   0.0000       2.853558        77.6493 
 614   0.0000       2.858327        77.7790 
 615   0.0000       2.865013        77.9610 
 616   0.0000       2.869416        78.0808 
 617   0.0000       2.875288        78.2406 
 618   0.0000       2.882070        78.4251 
 619   0.0000       2.885889        78.5290 
 620   0.0000       2.894127        78.7532 
 621   0.0000       2.901226        78.9464 
 622   0.0000       2.904269        79.0292 
 623   0.0000       2.905770        79.0700 
 624   0.0000       2.911333        79.2214 
 625   0.0000       2.916416        79.3597 
 626   0.0000       2.920124        79.4606 
 627   0.0000       2.922512        79.5256 
 628   0.0000       2.931134        79.7602 
 629   0.0000       2.936007        79.8928 
 630   0.0000       2.943587        80.0991 
 631   0.0000       2.944785        80.1317 
 632   0.0000       2.948469        80.2319 
 633   0.0000       2.953974        80.3817 
 634   0.0000       2.957781        80.4853 
 635   0.0000       2.965942        80.7074 
 636   0.0000       2.975287        80.9617 
 637   0.0000       2.979361        81.0725 
 638   0.0000       2.980934        81.1153 
 639   0.0000       2.987374        81.2906 
 640   0.0000       2.993866        81.4672 
 641   0.0000       3.001437        81.6733 
 642   0.0000       3.005152        81.7743 
 643   0.0000       3.012551        81.9757 
 644   0.0000       3.017178        82.1016 
 645   0.0000       3.025358        82.3242 
 646   0.0000       3.029779        82.4445 
 647   0.0000       3.032511        82.5188 
 648   0.0000       3.033495        82.5456 
 649   0.0000       3.041637        82.7671 
 650   0.0000       3.045206        82.8643 
 651   0.0000       3.048846        82.9633 
 652   0.0000       3.058384        83.2229 
 653   0.0000       3.061037        83.2951 
 654   0.0000       3.062223        83.3273 
 655   0.0000       3.068711        83.5039 
 656   0.0000       3.076772        83.7232 
 657   0.0000       3.081503        83.8520 
 658   0.0000       3.084853        83.9431 
 659   0.0000       3.093483        84.1780 
 660   0.0000       3.101871        84.4062 
 661   0.0000       3.107974        84.5723 
 662   0.0000       3.110409        84.6385 
 663   0.0000       3.115649        84.7811 
 664   0.0000       3.121843        84.9497 
 665   0.0000       3.123377        84.9914 
 666   0.0000       3.125698        85.0546 
 667   0.0000       3.134050        85.2818 
 668   0.0000       3.142144        85.5021 
 669   0.0000       3.146081        85.6092 
 670   0.0000       3.156256        85.8861 
 671   0.0000       3.159963        85.9870 
 672   0.0000       3.169445        86.2450 
 673   0.0000       3.169864        86.2564 
 674   0.0000       3.175485        86.4093 
 675   0.0000       3.180104        86.5350 
 676   0.0000       3.188889        86.7741 
 677   0.0000       3.195012        86.9407 
 678   0.0000       3.198179        87.0269 
 679   0.0000       3.211945        87.4015 
 680   0.0000       3.215147        87.4886 
 681   0.0000       3.218393        87.5769 
 682   0.0000       3.225886        87.7808 
 683   0.0000       3.227377        87.8214 
 684   0.0000       3.233605        87.9909 
 685   0.0000       3.239584        88.1536 
 686   0.0000       3.243080        88.2487 
 687   0.0000       3.251060        88.4658 
 688   0.0000       3.255340        88.5823 
 689   0.0000       3.258767        88.6756 
 690   0.0000       3.261827        88.7588 
 691   0.0000       3.277905        89.1963 
 692   0.0000       3.282798        89.3295 
 693   0.0000       3.286646        89.4342 
 694   0.0000       3.290618        89.5423 
 695   0.0000       3.292041        89.5810 
 696   0.0000       3.300228        89.8038 
 697   0.0000       3.305422        89.9451 
 698   0.0000       3.313365        90.1612 
 699   0.0000       3.315361        90.2156 
 700   0.0000       3.331682        90.6597 
 701   0.0000       3.334649        90.7404 
 702   0.0000       3.340769        90.9069 
 703   0.0000       3.341870        90.9369 
 704   0.0000       3.354263        91.2741 
 705   0.0000       3.361264        91.4646 
 706   0.0000       3.365937        91.5918 
 707   0.0000       3.367882        91.6447 
 708   0.0000       3.377547        91.9077 
 709   0.0000       3.382376        92.0391 
 710   0.0000       3.385013        92.1109 
 711   0.0000       3.388256        92.1991 
 712   0.0000       3.392372        92.3111 
 713   0.0000       3.402078        92.5752 
 714   0.0000       3.406156        92.6862 
 715   0.0000       3.407992        92.7362 
 716   0.0000       3.418514        93.0225 
 717   0.0000       3.422808        93.1393 
 718   0.0000       3.426683        93.2448 
 719   0.0000       3.432913        93.4143 
 720   0.0000       3.439118        93.5832 
 721   0.0000       3.443634        93.7061 
 722   0.0000       3.451568        93.9219 
 723   0.0000       3.454870        94.0118 
 724   0.0000       3.456667        94.0607 
 725   0.0000       3.465396        94.2982 
 726   0.0000       3.478420        94.6526 
 727   0.0000       3.479950        94.6943 
 728   0.0000       3.482740        94.7702 
 729   0.0000       3.490248        94.9745 
 730   0.0000       3.498589        95.2015 
 731   0.0000       3.504306        95.3570 
 732   0.0000       3.509357        95.4945 
 733   0.0000       3.517458        95.7149 
 734   0.0000       3.525456        95.9325 
 735   0.0000       3.529316        96.0376 
 736   0.0000       3.538437        96.2858 
 737   0.0000       3.540365        96.3382 
 738   0.0000       3.544994        96.4642 
 739   0.0000       3.551961        96.6538 
 740   0.0000       3.555069        96.7383 
 741   0.0000       3.559648        96.8629 
 742   0.0000       3.561678        96.9182 
 743   0.0000       3.571763        97.1926 
 744   0.0000       3.573265        97.2335 
 745   0.0000       3.581687        97.4626 
 746   0.0000       3.597164        97.8838 
 747   0.0000       3.599195        97.9391 
 748   0.0000       3.605550        98.1120 
 749   0.0000       3.608960        98.2048 
 750   0.0000       3.620696        98.5241 
 751   0.0000       3.632784        98.8531 
 752   0.0000       3.633783        98.8803 
 753   0.0000       3.641331        99.0857 
 754   0.0000       3.649711        99.3137 
 755   0.0000       3.654130        99.4339 
 756   0.0000       3.658754        99.5598 
 757   0.0000       3.677519       100.0704 
 758   0.0000       3.689421       100.3943 
 759   0.0000       3.697491       100.6139 
 760   0.0000       3.700682       100.7007 
 761   0.0000       3.703926       100.7889 
 762   0.0000       3.708291       100.9077 
 763   0.0000       3.717387       101.1552 
 764   0.0000       3.720166       101.2309 
 765   0.0000       3.732895       101.5772 
 766   0.0000       3.737731       101.7088 
 767   0.0000       3.745047       101.9079 
 768   0.0000       3.754388       102.1621 
 769   0.0000       3.755703       102.1979 
 770   0.0000       3.766228       102.4843 
 771   0.0000       3.776940       102.7758 
 772   0.0000       3.785032       102.9960 
 773   0.0000       3.788864       103.1002 
 774   0.0000       3.793359       103.2226 
 775   0.0000       3.802272       103.4651 
 776   0.0000       3.806078       103.5686 
 777   0.0000       3.808383       103.6314 
 778   0.0000       3.813495       103.7705 
 779   0.0000       3.817154       103.8700 
 780   0.0000       3.826232       104.1171 
 781   0.0000       3.831541       104.2615 
 782   0.0000       3.835438       104.3676 
 783   0.0000       3.841120       104.5222 
 784   0.0000       3.847204       104.6877 
 785   0.0000       3.851005       104.7912 
 786   0.0000       3.854144       104.8766 
 787   0.0000       3.863629       105.1347 
 788   0.0000       3.872116       105.3656 
 789   0.0000       3.879389       105.5635 
 790   0.0000       3.889224       105.8312 
 791   0.0000       3.891830       105.9021 
 792   0.0000       3.894127       105.9646 
 793   0.0000       3.902500       106.1924 
 794   0.0000       3.912768       106.4718 
 795   0.0000       3.916587       106.5757 
 796   0.0000       3.923995       106.7773 
 797   0.0000       3.930957       106.9668 
 798   0.0000       3.936853       107.1272 
 799   0.0000       3.938864       107.1819 
 800   0.0000       3.943646       107.3121 
 801   0.0000       3.951400       107.5231 
 802   0.0000       3.956010       107.6485 
 803   0.0000       3.967944       107.9733 
 804   0.0000       3.975646       108.1828 
 805   0.0000       3.979977       108.3007 
 806   0.0000       3.984289       108.4180 
 807   0.0000       3.987790       108.5133 
 808   0.0000       3.992323       108.6366 
 809   0.0000       3.999729       108.8382 
 810   0.0000       4.006843       109.0317 
 811   0.0000       4.019917       109.3875 
 812   0.0000       4.030325       109.6707 
[...]

    TCutPairs          =        1.000e-05
    TCutPNO            =        1.000e-07
    TCutPNOSingles     =        3.000e-09
    TCutMP2Pairs       =        1.000e-06
    TCutMKN            =        1.000e-03
    TCutDO             =        5.000e-03

Pair selection                          .... not used
Type of local MP2 treatment                 .... full local PMP2
Strategy for PNO selection                  .... occupation number selection
Pair density normalization                  .... MP2 norm
Spin component scaling                      .... not used

PASS-1: Formation of initial guess LMP2 amplitudes
Initial amplitudes guess done. Entering LMP2 iteration loop:
   Max. no of iterations          ...  50
   Energy convergence tolerance   ...    1.0e-07
   Residual convergence tolerance ...    5.0e-07
   Fock matrix cutoff             ...    1.0e-05 Eh
   DIIS convergence acceleration parameters:
        Max # vectors in DIIS     ... 7
        Start iteration of DIIS   ... 0
        Levelshift                ... 2.000e-01
        Damping factor 1          ... 5.000e-01
        Damping factor 2          ... 1.000e+00
   L-MP2 PNO cut-off              ...   1.0e-09
   L-MP2 PNO cut-off (core)       ...   1.0e-11
                           *** Turning on DIIS ***
LMP2-Iter=   0:  ELMP2= -4.560416590869  DE=   1.1e-01 RMAX=   1.4e-02
LMP2-Iter=   1:  ELMP2= -4.615794334550  DE=   5.5e-02 RMAX=   6.3e-03
LMP2-Iter=   2:  ELMP2= -4.627058591084  DE=   1.1e-02 RMAX=   2.4e-03
LMP2-Iter=   3:  ELMP2= -4.628640092418  DE=   1.6e-03 RMAX=   9.0e-04
LMP2-Iter=   4:  ELMP2= -4.628663131675  DE=   2.3e-05 RMAX=   2.9e-04
LMP2-Iter=   5:  ELMP2= -4.628621869149  DE=   4.1e-05 RMAX=   8.8e-05
LMP2-Iter=   6:  ELMP2= -4.628615612548  DE=   6.3e-06 RMAX=   2.4e-05
LMP2-Iter=   7:  ELMP2= -4.628616949887  DE=   1.3e-06 RMAX=   7.2e-06
LMP2-Iter=   8:  ELMP2= -4.628617689370  DE=   7.4e-07 RMAX=   1.9e-06
LMP2-Iter=   9:  ELMP2= -4.628617633413  DE=   5.6e-08 RMAX=   5.3e-07
LMP2-Iter=  10:  ELMP2= -4.628617617785  DE=   1.6e-08 RMAX=   1.3e-07
LMP2-Iter=  11:  ELMP2= -4.628617584394  DE=   3.3e-08 RMAX=   4.4e-08 => CONVERGED
PASS-2: Formation of Pair natural orbitals
   .... Finished loop over pairs

 PNO Occupation Number Statistics: 
  | Av. % of trace(Dij) retained        ...  97.509843326107
  | sigma^2 in % of trace(Dij) retained ...   1.38e+01
  | Av. % of trace(Di) retained         ...  99.999514043179
  | sigma^2 in % of trace(Di) retained  ...   1.83e-08
 Distributions of % trace(Dij) recovered:
  |       >= 99.9  ...   227 ( 13.3 % of all pairs)
  |   [60.0, 70.0) ...     1 (  0.1 % of all pairs)
  |   [70.0, 80.0) ...    16 (  0.9 % of all pairs)
  |   [80.0, 90.0) ...    79 (  4.6 % of all pairs)
  |   [90.0, 99.0) ...   872 ( 51.0 % of all pairs)
  |   [99.0, 99.9) ...   515 ( 30.1 % of all pairs)
 Distributions of % trace(Di) recovered :
  |       >= 99.9  ...    64 (100.0 % of all I-pairs )

Making pair pair interaction lists          ... done

                       ===========================
                       1139 OF 1710 PAIRS ARE KEPT
                       ===========================

Total time spent in the initial guess                 ...  2224.311 sec
L-MP2 correlation energy (all non-screened pairs)     ...      -4.628617584394 Eh
L-MP2 PNO error correction                            ...      -0.000333470492 Eh
                                                          --------------------
Initial total L-MP2 energy (non-screened pairs)       ...      -4.628951054886 Eh

Initial PNO correlation energy                        ...      -4.617316239620 Eh
sum of pair energies estimated for screened out pairs ...      -0.000148313245 Eh
sum of MP2 pair energies for pairs that were not kept ...      -0.002586092846 Eh
sum of PNO error estimates for the kept pairs         ...      -0.009511798089 Eh
                                                          --------------------
sum of all corrections                                         -0.012246204180
Initial total correlation energy                               -4.629562443800
Thresholds for map construction and integral transformation for fine MP2 and CCSD(T) calculation:
   TCutMKN   ...     1.0e-03
   TCutDO    ...     5.0e-03
   TCutPairs ...     1.0e-05
   TCutCMO   ...     1.0e-03
   TCutCPAO  ...     1.0e-03

Time for aux screen maps:            0.029
Time for maps after fine MP2:            0.232
-----------------------------
LOCAL RI TRANSFORMATION (IJV)
-----------------------------

Orbital window:      23 to 86
Basis functions:   1865 (545 shells)
Aux. functions:    4136 (990 shells)
Use SHARK:           on

Processing maps (0.0 sec)
Average map sizes:
   Aux shells -> MOs(i)           53.8
   Aux shells -> MOs(j)           64.0
   MOs        -> AO shells       466.0

Calculating integrals (14.2 sec, 109.317 MB)
Sorting integrals (0.4 sec, 109.270 MB)
Total time for the integral transformation: 14.6 sec
--------------------------------
LOCAL RI TRANSFORMATION (VABPAO)
--------------------------------

Number of PAOs:    1865
Basis functions:   1865 (545 shells)
Aux. functions:    4136 (990 shells)
Use SHARK:           on

Processing maps (0.0 sec)
Average map sizes:
   Aux shells -> PAOs           1815.5
   PAOs       -> AO shells       524.6

Calculating integrals (447.0 sec, 104429.629 MB)
Finished


-------------------------------------
Pair Pair Term precalculation with     
RI-(ij|mn) and (im|jn) transformation  
ON THE FLY                             
-------------------------------------

   IBatch   1 (of   5)              ... done (  640.330 sec)
   IBatch   2 (of   5)              ... done (  683.606 sec)
   IBatch   3 (of   5)              ... done (  822.694 sec)
   IBatch   4 (of   5)              ... done ( 1062.799 sec)
   IBatch   5 (of   5)              ... done (  758.394 sec)
Total EXT                           ...        3967.855 sec

---------------------
RI-PNO TRANSFORMATION
---------------------

Total Number of PNOs                   ... 43318
Average number of PNOs per pair        ...    38
Maximal number of PNOs per pair        ...   128
   #pairs with  1 -  5 PNOs   :    0
   #pairs with  6 - 10 PNOs   :  223
   #pairs with 11 - 15 PNOs   :  132
   #pairs with 16 - 20 PNOs   :   94
   #pairs with 21 - 25 PNOs   :   67
   #pairs with 26 - 30 PNOs   :   83
   #pairs with 31 - 35 PNOs   :   49
   #pairs with 36 - 40 PNOs   :   49
   #pairs with 41 - 45 PNOs   :   42
   #pairs with 46 - 50 PNOs   :   30
   #pairs with 51 - 55 PNOs   :   53
   #pairs with 56 - 60 PNOs   :   48
   #pairs with 61 - 65 PNOs   :   34
   #pairs with 66 - 70 PNOs   :   23
   #pairs with 71 - 75 PNOs   :   14
   #pairs with 76 - 80 PNOs   :   53
   #pairs with 81 - 85 PNOs   :   43
   #pairs with 86 - 90 PNOs   :   33
   #pairs with 91 - 95 PNOs   :   40
   #pairs with > 96 PNOs      :   29

Generation of (ij|ab)[P] integrals            ... on
Generation of (ia|bc)[P],(ja|bc)[P] integrals ... on
Storage of 3 and 4 external integrals         ... on
Generation of ALL (ka|bc)[P] integrals        ... on
Keep RI integrals in memory                   ... off

Ibatch:  1 (of  1)
Starting 2-4 index PNO integral generation ... done

Timings:
Total PNO integral transformation time     ...       2271.331 sec
Size of the 3-external file                ...      1458 MB
Size of the 4-external file                ...     14812 MB
Size of the IKJL file                      ...         0 MB
Size of the all 3-external file            ...     40572 MB
Size of the 1-external file                ...        56 MB

Making pair/pair overlap matrices          ... done (  509.913 sec)
Size of the pair overlap file              ... 9488 MB
Redoing the guess amplitudes               ... done (    0.195 sec)

-------------------------
FINAL STARTUP INFORMATION
-------------------------

E(0)                                       ...  -1154.751154677
E(L-MP2)                                   ...     -4.628951055
E(L-MP2) including corrections             ...     -4.629562444
Initial E(tot)                             ...  -1159.380717121
<T|T>                                      ...      1.131274404
Number of pairs included                   ... 1139
Total number of pairs                      ... 2080

------------------------------------------------
                  RHF COUPLED CLUSTER ITERATIONS
------------------------------------------------

Number of PNO amplitudes to be optimized   ...      2584388
Number of non-PNO amplitudes               ...   3600702476
Untruncated number of regular amplitudes   ...   6575470720

Iter       E(tot)           E(Corr)          Delta-E          Residual     Time
  0  -1159.206195581     -4.442794699      0.186156355      0.013863611 1788.12
                           *** Turning on DIIS ***
  1  -1159.270708253     -4.507307372     -0.064512672      0.010369590 1703.45
  2  -1159.370278147     -4.606877265     -0.099569893      0.005870563 1768.34
  3  -1159.394346676     -4.630945794     -0.024068529      0.003274719 1979.36
  4  -1159.401528894     -4.638128013     -0.007182219      0.001676799 1991.28
  5  -1159.403832263     -4.640431381     -0.002303368      0.000840061 1979.20
  6  -1159.404425758     -4.641024877     -0.000593496      0.000389647 2010.24
  7  -1159.404547569     -4.641146687     -0.000121810      0.000202881 2024.39
  8  -1159.404576201     -4.641175320     -0.000028633      0.000116024 2072.65
  9  -1159.404553615     -4.641152734      0.000022586      0.000059377 2011.54
 10  -1159.404560476     -4.641159595     -0.000006861      0.000029514 2016.57
 11  -1159.404558114     -4.641157232      0.000002363      0.000015118 2020.12
 12  -1159.404556840     -4.641155958      0.000001274      0.000008199 2022.41
               --- The Coupled-Cluster iterations have converged ---

----------------------
COUPLED CLUSTER ENERGY
----------------------

E(0)                                       ...  -1154.751154677
E(CORR)(strong-pairs)                      ...     -4.641155958
E(CORR)(weak-pairs)                        ...     -0.012246204
E(CORR)(corrected)                         ...     -4.653402163
E(TOT)                                     ...  -1159.404556840
Singles Norm <S|S>**1/2                    ...      0.154338625  
T1 diagnostic                              ...      0.013641736  

------------------
LARGEST AMPLITUDES
------------------
  56-> 87  56-> 87       0.058351
  57-> 87  57-> 87       0.051160
  69-> 87  69-> 87       0.051052
  57-> 87  56-> 87       0.046868
  73-> 87  73-> 87       0.045679
  74-> 87  74-> 87       0.044733
  70-> 87  70-> 87       0.042981
  44-> 87  44-> 87       0.042242
  70-> 87  69-> 87       0.040472
  53-> 89  53-> 89       0.038994
  74-> 87  73-> 87       0.038600
  76-> 89  76-> 89       0.036282
  58-> 90  58-> 90       0.036066
  80-> 87  80-> 87       0.035784
  75-> 91  75-> 91       0.035687
  59-> 87  59-> 87       0.035492


-------------------------------------------
DLPNO BASED TRIPLES CORRECTION
-------------------------------------------

Singles multiplier          ...  1.000000
TCutTNO                     ... 1.000e-09
TCutMP2Pairs                ... 1.000e-06
TCutDOStrong                ... 1.000e-02
TCutMKNStrong               ... 1.000e-02
TCutDOWeak                  ... 2.000e-02
TCutMKNWeak                 ... 1.000e-01

Fragment selection                          .... not used
Fock matrix occ-virt block is zero --> Setting DT_in_Triples to false.
Number of Triples that are to be computed   ...     19737

 . . . . . . . . .
10% done  
20% done               (   6498.641 sec)
 . . . . . . . . .
30% done  
40% done  
50% done               (  10036.592 sec)
 . . . . . . . . .
60% done  
70% done  
80% done  
90% done               (   8819.820 sec)
Triples timings:
Total time for T0               ... 28029.836 sec
Total time for Iterative (T)    ...     0.000 sec
Total time of overall (T)       ... 29574.584 sec

Triples List generation         ...     0.000 sec
TNO generation                  ...  2673.895 sec
Pair density generation         ...     0.053 sec
Look up tables                  ...     0.000 sec
Generating 3-index integrals    ... 21266.097 sec
  Make 4-ind.int. from 3-ind.int...   298.375 sec
  Projecting amplitudes (D + S) ...  3547.999 sec
  Downprojecting integrals      ...     0.010 sec
  Energy contr. (sum over a,b,c)...    17.018 sec
Fitting ET(->0)                 ...     0.000 sec

Everything after 3-index        ...  4088.956 sec

Timing details:
 TNO integrals                  ... 21549.478 sec
   Reading 3-index integrals    ...   720.944 sec
   Sorting integrals            ...  1536.125 sec
       Sorting integrals 1      ...     0.012 sec
       Sorting integrals 2      ...  1503.767 sec
       Sorting integrals 3      ...     9.220 sec
       Sorting integrals 4      ...     0.695 sec
       Sorting integrals 5      ...     6.019 sec
       Sorting integrals 6      ...    16.413 sec
   Calculating local VM**-1/2   ...    21.157 sec
   Orthogonal. integrals        ...    33.119 sec
   Multipl. 3-index integrals   ... 19238.133 sec
   All concerning IRIab (w/TNO) ...   218.170 sec

 Calculate W0/W1                ...   225.504 sec
 W 3-ext contribution           ...   150.701 sec
 W 3-int contribution           ...    56.996 sec
 Sorting W                      ...    15.506 sec

 V exchange contribution        ...     4.397 sec

 Timings for Triples without generation
     of 3-index integrals       ...  4088.946 sec
       0 weak pairs             ...  3104.409 sec
       1 weak pair              ...   984.536 sec
       2 weak pairs             ...     0.000 sec
       3 weak pairs             ...     0.000 sec
  Extra time for extrapolation  ...     0.000 sec

Number of Triples   (0, 1, 2, 3 weak pairs; overall):  11894    7843       0       0  ( 19737)
Number of Atoms     (0, 1, 2, 3 weak pairs; overall):   24.2    23.2     0.0     0.0  (    43)
Number of PAOs      (0, 1, 2, 3 weak pairs; overall): 1104.1  1069.1     0.0     0.0  (  1865)
Number of AuxFcns   (0, 1, 2, 3 weak pairs; overall):  890.2   630.6     0.0     0.0  (  4136)
Number of TNOs      (0, 1, 2, 3 weak pairs         ):  107.0    57.8     0.0     0.0
Aver. Number of NTNO, Atoms, PAOs, AuxFcns / Triples:  19737    87.5    23.8  1090.2   787.0

Triples Correction (T)                     ...     -0.213757521
Final correlation energy                   ...     -4.867159684
E(CCSD)                                    ...  -1159.404556840
E(CCSD(T))                                 ...  -1159.618314361



--------------------------------------------------------------------------------
                                    TIMINGS
--------------------------------------------------------------------------------


Total execution time                   ...    65787.827 sec

Localization of occupied MO's          ...       36.514 sec (  0.1%)
Fock Matrix Formation                  ...      349.955 sec (  0.5%)
Global overlap, Fock, MKN matrices     ...       15.641 sec (  0.0%)
Differential overlap integrals         ...        5.251 sec (  0.0%)
Organizing maps                        ...        0.655 sec (  0.0%)
RI 3-index integral generations        ...      538.209 sec (  0.8%)
RI-PNO integral transformation         ...     7058.543 sec ( 10.7%)
Initial Guess                          ...     2817.312 sec (  4.3%)
DIIS Solver                            ...       82.279 sec (  0.1%)
State Vector Update                    ...        0.279 sec (  0.0%)
Sigma-vector construction              ...    25368.220 sec ( 38.6%)
  <0|H|D>                              ...        0.002 sec (  0.0% of sigma)
  <D|H|D>(0-ext)                       ...     6014.595 sec ( 23.7% of sigma)
  <D|H|D>(2-ext Fock)                  ...        2.017 sec (  0.0% of sigma)
  <D|H|D>(2-ext)                       ...     1761.366 sec (  6.9% of sigma)
  <D|H|D>(4-ext)                       ...      135.853 sec (  0.5% of sigma)
  <D|H|D>(4-ext-corr)                  ...      667.025 sec (  2.6% of sigma)
  CCSD doubles correction              ...      404.342 sec (  1.6% of sigma)
  <S|H|S>                              ...      307.268 sec (  1.2% of sigma)
  <S|H|D>(1-ext)                       ...       17.473 sec (  0.1% of sigma)
  <D|H|S>(1-ext)                       ...        2.809 sec (  0.0% of sigma)
  <S|H|D>(3-ext)                       ...       18.338 sec (  0.1% of sigma)
  CCSD singles correction              ...        0.003 sec (  0.0% of sigma)
  Fock-dressing                        ...     7145.630 sec ( 28.2% of sigma)
  Singles amplitudes                   ...      223.683 sec (  0.9% of sigma)
  (ik|jl)-dressing                     ...     7302.813 sec ( 28.8% of sigma)
  (ij|ab),(ia|jb)-dressing             ...     1357.638 sec (  5.4% of sigma)
  Pair energies                        ...        0.056 sec (  0.0% of sigma)
Total Time for computing (T)           ...    29574.836 sec ( 45.0% of ALL)


Maximum memory used throughout the entire MDCI-calculation: 10137.2 MB

-------------------------   --------------------
FINAL SINGLE POINT ENERGY     -1159.618314361313
-------------------------   --------------------


                            ***************************************
                            *     ORCA property calculations      *
                            ***************************************


  WARNING: The energy has been calculated at the MDCI level but the densities
           used in the property calculations are still SCF densities
           MDCI response densities have not been calculated 
           use %mdci Density linearized end
           or  %mdci Density unrelaxed end
           or  %mdci Density orbopt end

                                    ---------------------
                                    Active property flags
                                    ---------------------
   (+) Dipole Moment


------------------------------------------------------------------------------
                       ORCA ELECTRIC PROPERTIES CALCULATION
------------------------------------------------------------------------------

Dipole Moment Calculation                       ... on
Quadrupole Moment Calculation                   ... off
Polarizability Calculation                      ... off
GBWName                                         ... input.gbw
Electron density                                ... input.scfp
The origin for moment calculation is the CENTER OF MASS  = (19.811786, 18.598675 18.493750)

-------------
DIPOLE MOMENT
-------------
                                X             Y             Z
Electronic contribution:     24.40273      -9.01764      -0.20490
Nuclear contribution   :    -35.13857      12.45445       5.87060
                        -----------------------------------------
Total Dipole Moment    :    -10.73583       3.43681       5.66571
                        -----------------------------------------
Magnitude (a.u.)       :     12.61626
Magnitude (Debye)      :     32.06798



--------------------
Rotational spectrum 
--------------------
 
Rotational constants in cm-1:     0.015301     0.004186     0.004091 
Rotational constants in MHz :   458.721875   125.504926   122.653351 

 Dipole components along the rotational axes: 
x,y,z [a.u.] :    11.649913     4.418716     1.981024 
x,y,z [Debye]:    29.611726    11.231483     5.035363 

 

Timings for individual modules:

Sum of individual times         ...    68448.930 sec (=1140.815 min)
GTO integral calculation        ...       14.275 sec (=   0.238 min)   0.0 %
SCF iterations                  ...     2643.002 sec (=  44.050 min)   3.9 %
MDCI module                     ...    65791.653 sec (=1096.528 min)  96.1 %
                             ****ORCA TERMINATED NORMALLY****
TOTAL RUN TIME: 0 days 19 hours 0 minutes 55 seconds 752 msec
