Loading orca/5.0.3
  Loading requirement: gcc-runtime/11.3.1-gcc-11.3.1-jw6fhud
    numactl/2.0.14-gcc-11.3.1-tqvsbcd openssh/8.7p1-gcc-11.3.1-ddo4kmk
    libiconv/1.17-gcc-11.3.1-h3jdn2x xz/5.4.1-gcc-11.3.1-y32p7p3
    zlib/1.2.13-gcc-11.3.1-dwcx77k libxml2/2.10.3-gcc-11.3.1-m4mk5ab
    cuda/11.8.0-gcc-11.3.1-i5witig libpciaccess/0.17-gcc-11.3.1-qksiqer
    ncurses/6.4-gcc-11.3.1-afnu276 hwloc/2.9.1-gcc-11.3.1-qedjm66
    openssl/3.1.2-gcc-11.3.1-mgoa6lt libevent/2.1.12-gcc-11.3.1-bpr3m74
    pmix/4.2.2-gcc-11.3.1-du4y5e7 slurm/22.05.6-gcc-11.3.1-atym2np
    libnl/3.3.0-gcc-11.3.1-gh3muw7 rdma-core/41.0-gcc-11.3.1-isp54jw
    ucx/1.14.1-gcc-11.3.1-o3wj4kz openmpi/4.1.2-gcc-11.3.1-fs7u3kb

                                 *****************
                                 * O   R   C   A *
                                 *****************

                                            #,                                       
                                            ###                                      
                                            ####                                     
                                            #####                                    
                                            ######                                   
                                           ########,                                 
                                     ,,################,,,,,                         
                               ,,#################################,,                 
                          ,,##########################################,,             
                       ,#########################################, ''#####,          
                    ,#############################################,,   '####,        
                  ,##################################################,,,,####,       
                ,###########''''           ''''###############################       
              ,#####''   ,,,,##########,,,,          '''####'''          '####       
            ,##' ,,,,###########################,,,                        '##       
           ' ,,###''''                  '''############,,,                           
         ,,##''                                '''############,,,,        ,,,,,,###''
      ,#''                                            '''#######################'''  
     '                                                          ''''####''''         
             ,#######,   #######,   ,#######,      ##                                
            ,#'     '#,  ##    ##  ,#'     '#,    #''#        ######   ,####,        
            ##       ##  ##   ,#'  ##            #'  '#       #        #'  '#        
            ##       ##  #######   ##           ,######,      #####,   #    #        
            '#,     ,#'  ##    ##  '#,     ,#' ,#      #,         ##   #,  ,#        
             '#######'   ##     ##  '#######'  #'      '#     #####' # '####'        



                  #######################################################
                  #                        -***-                        #
                  #          Department of theory and spectroscopy      #
                  #    Directorship and core code : Frank Neese         #
                  #        Max Planck Institute fuer Kohlenforschung    #
                  #                Kaiser Wilhelm Platz 1               #
                  #                 D-45470 Muelheim/Ruhr               #
                  #                      Germany                        #
                  #                                                     #
                  #                  All rights reserved                #
                  #                        -***-                        #
                  #######################################################


                         Program Version 5.0.3 -  RELEASE  -


 With contributions from (in alphabetic order):
   Daniel Aravena         : Magnetic Suceptibility
   Michael Atanasov       : Ab Initio Ligand Field Theory (pilot matlab implementation)
   Alexander A. Auer      : GIAO ZORA, VPT2 properties, NMR spectrum
   Ute Becker             : Parallelization
   Giovanni Bistoni       : ED, misc. LED, open-shell LED, HFLD
   Martin Brehm           : Molecular dynamics
   Dmytro Bykov           : SCF Hessian
   Vijay G. Chilkuri      : MRCI spin determinant printing, contributions to CSF-ICE
   Dipayan Datta          : RHF DLPNO-CCSD density
   Achintya Kumar Dutta   : EOM-CC, STEOM-CC
   Dmitry Ganyushin       : Spin-Orbit,Spin-Spin,Magnetic field MRCI
   Miquel Garcia          : C-PCM and meta-GGA Hessian, CC/C-PCM, Gaussian charge scheme
   Yang Guo               : DLPNO-NEVPT2, F12-NEVPT2, CIM, IAO-localization
   Andreas Hansen         : Spin unrestricted coupled pair/coupled cluster methods
   Benjamin Helmich-Paris : MC-RPA, TRAH-SCF, COSX integrals
   Lee Huntington         : MR-EOM, pCC
   Robert Izsak           : Overlap fitted RIJCOSX, COSX-SCS-MP3, EOM
   Marcus Kettner         : VPT2
   Christian Kollmar      : KDIIS, OOCD, Brueckner-CCSD(T), CCSD density, CASPT2, CASPT2-K
   Simone Kossmann        : Meta GGA functionals, TD-DFT gradient, OOMP2, MP2 Hessian
   Martin Krupicka        : Initial AUTO-CI
   Lucas Lang             : DCDCAS
   Marvin Lechner         : AUTO-CI (C++ implementation), FIC-MRCC
   Dagmar Lenk            : GEPOL surface, SMD
   Dimitrios Liakos       : Extrapolation schemes; Compound Job, initial MDCI parallelization
   Dimitrios Manganas     : Further ROCIS development; embedding schemes
   Dimitrios Pantazis     : SARC Basis sets
   Anastasios Papadopoulos: AUTO-CI, single reference methods and gradients
   Taras Petrenko         : DFT Hessian,TD-DFT gradient, ASA, ECA, R-Raman, ABS, FL, XAS/XES, NRVS
   Peter Pinski           : DLPNO-MP2, DLPNO-MP2 Gradient
   Christoph Reimann      : Effective Core Potentials
   Marius Retegan         : Local ZFS, SOC
   Christoph Riplinger    : Optimizer, TS searches, QM/MM, DLPNO-CCSD(T), (RO)-DLPNO pert. Triples
   Tobias Risthaus        : Range-separated hybrids, TD-DFT gradient, RPA, STAB
   Michael Roemelt        : Original ROCIS implementation
   Masaaki Saitow         : Open-shell DLPNO-CCSD energy and density
   Barbara Sandhoefer     : DKH picture change effects
   Avijit Sen             : IP-ROCIS
   Kantharuban Sivalingam : CASSCF convergence, NEVPT2, FIC-MRCI
   Bernardo de Souza      : ESD, SOC TD-DFT
   Georgi Stoychev        : AutoAux, RI-MP2 NMR, DLPNO-MP2 response
   Willem Van den Heuvel  : Paramagnetic NMR
   Boris Wezisla          : Elementary symmetry handling
   Frank Wennmohs         : Technical directorship


 We gratefully acknowledge several colleagues who have allowed us to
 interface, adapt or use parts of their codes:
   Stefan Grimme, W. Hujo, H. Kruse, P. Pracht,  : VdW corrections, initial TS optimization,
                  C. Bannwarth, S. Ehlert          DFT functionals, gCP, sTDA/sTD-DF
   Ed Valeev, F. Pavosevic, A. Kumar             : LibInt (2-el integral package), F12 methods
   Garnet Chan, S. Sharma, J. Yang, R. Olivares  : DMRG
   Ulf Ekstrom                                   : XCFun DFT Library
   Mihaly Kallay                                 : mrcc  (arbitrary order and MRCC methods)
   Jiri Pittner, Ondrej Demel                    : Mk-CCSD
   Frank Weinhold                                : gennbo (NPA and NBO analysis)
   Christopher J. Cramer and Donald G. Truhlar   : smd solvation model
   Lars Goerigk                                  : TD-DFT with DH, B97 family of functionals
   V. Asgeirsson, H. Jonsson                     : NEB implementation
   FAccTs GmbH                                   : IRC, NEB, NEB-TS, DLPNO-Multilevel, CI-OPT
                                                   MM, QMMM, 2- and 3-layer-ONIOM, Crystal-QMMM,
                                                   LR-CPCM, SF, NACMEs, symmetry and pop. for TD-DFT,
                                                   nearIR, NL-DFT gradient (VV10), updates on ESD,
                                                   ML-optimized integration grids
   S Lehtola, MJT Oliveira, MAL Marques          : LibXC Library
   Liviu Ungur et al                             : ANISO software


 Your calculation uses the libint2 library for the computation of 2-el integrals
 For citations please refer to: http://libint.valeyev.net

 Your ORCA version has been built with support for libXC version: 5.1.0
 For citations please refer to: https://tddft.org/programs/libxc/

 This ORCA versions uses:
   CBLAS   interface :  Fast vector & matrix operations
   LAPACKE interface :  Fast linear algebra routines
   SCALAPACK package :  Parallel linear algebra routines
   Shared memory     :  Shared parallel matrices
   BLAS/LAPACK       :  OpenBLAS 0.3.15  USE64BITINT DYNAMIC_ARCH NO_AFFINITY Prescott SINGLE_THREADED
        Core in use  :  Prescott
   Copyright (c) 2011-2014, The OpenBLAS Project


================================================================================

----- Orbital basis set information -----
Your calculation utilizes the basis: cc-pVQZ 
       H, B-Ne : Obtained from the ccRepo (grant-hill.group.shef.ac.uk/ccrepo) Feb. 2017
                 T. H. Dunning, Jr., J. Chem. Phys. 90, 1007 (1989)
            He : Obtained from the ccRepo (grant-hill.group.shef.ac.uk/ccrepo) Feb. 2017
                 D. E. Woon, T. H. Dunning, Jr., J. Chem. Phys. 100, 2975 (1994)
  Li-Be, Na-Mg : Obtained from the ccRepo (grant-hill.group.shef.ac.uk/ccrepo) Feb. 2017
                 B. P. Prascher, D. E. Woon, K. A. Peterson, T. H. Dunning, Jr., A. K. Wilson, Theor. Chem. Acc. 128, 69 (2011)
         Al-Ar : Obtained from the ccRepo (grant-hill.group.shef.ac.uk/ccrepo) Feb. 2017
                 D. E. Woon, T. H. Dunning, Jr., J. Chem. Phys. 98, 1358 (1993)
            Ca : Obtained from the Peterson Research Group Website (tyr0.chem.wsu.edu/~kipeters) Feb. 2017
                 J. Koput, K. A. Peterson, J. Phys. Chem. 106, 9595 (2002)
         Sc-Zn : Obtained from the ccRepo (grant-hill.group.shef.ac.uk/ccrepo) Feb. 2017
                 N. B. Balabanov, K. A. Peterson, J. Chem. Phys. 123, 064107 (2005)
                 N. B. Balabanov, K. A. Peterson, J. Chem. Phys. 125, 074110 (2006)
         Ga-Kr : Obtained from the ccRepo (grant-hill.group.shef.ac.uk/ccrepo) Feb. 2017
                 A. K. Wilson, D. E. Woon, K. A. Peterson, T. H. Dunning, Jr., J. Chem. Phys. 110, 7667 (1999)

----- AuxC basis set information -----
Your calculation utilizes the auxiliary basis: cc-pVQZ/C 
  Obtained from the EMSL Basis Set Exchange (bse.pnl.gov) Feb. 2017
  H-He, B-F, Al-Ar, Ga-Kr : F. Weigend, A. Kohn, C. Hattig, J. Chem. Phys. 116, 3175 (2002)
             Li-Be, Na-Mg : C. Haettig, Phys. Chem. Chem. Phys. 7, 59 (2005)
                       Ne : C. Haettig, Phys. Chem. Chem. Phys. 7, 59 (2005)
                            F. Weigend, A. Kohn, C. Hattig, J. Chem. Phys. 116, 3175 (2002)
                    Sc-Zn : D. H. Bross, J. G. Hill, H. J. Werner, K. A. Peterson, J. Chem. Phys. 139, 094302 (2013)

================================================================================
                                        WARNINGS
                       Please study these warnings very carefully!
================================================================================


WARNING: Post HF methods need fully converged wavefunctions
  ===> : Setting SCFConvForced true
         You can overwrite this default with %scf ConvForced false 


WARNING: MDCI localization with Augmented Hessian Foster-Boys
  ===> : Switching off randomization!

INFO   : the flag for use of the SHARK integral package has been found!

================================================================================
                                       INPUT FILE
================================================================================
NAME = input
|  1> ! DLPNO-CCSD(T) cc-pVQZ cc-pVQZ/C TIGHTPNO TIGHTSCF
|  2> %maxcore 10000
|  3> %pal
|  4> nprocs 32
|  5> end
|  6> *xyz -1 1
|  7> H 4.850702572198 12.929978235016 7.689207272938
|  8> C 5.346392000000 11.988262000000 7.873225000000
|  9> H 5.818917000000 11.687204000000 6.932850000000
| 10> H 4.604958000000 11.216892000000 8.098963000000
| 11> C 6.387474000000 11.928130000000 8.969919000000
| 12> H 5.903590000000 12.002705000000 9.946992000000
| 13> H 7.075298000000 12.768926000000 8.882044000000
| 14> C 7.142409000000 10.602734000000 8.882643000000
| 15> H 7.892207000000 10.644706000000 8.097099000000
| 16> H 6.447500000000 9.809447000000 8.614142000000
| 17> N 7.759930000000 10.161740000000 10.123856000000
| 18> H 7.531729000000 9.237844000000 10.490097000000
| 19> C 8.665316000000 10.823272000000 10.825154000000
| 20> N 9.186265000000 11.968733000000 10.354159000000
| 21> H 9.469935000000 11.856414000000 9.373770000000
| 22> H 9.971142000000 12.286641000000 10.899727000000
| 23> N 9.004891000000 10.351892000000 12.014456000000
| 24> H 9.687020000000 10.828265000000 12.590405000000
| 25> H 8.669327000000 9.431744000000 12.269270000000
| 26> C 13.493881000000 9.970208000000 8.967430000000
| 27> H 13.996369000000 9.953698000000 9.924883000000
| 28> H 14.096556000000 10.339812000000 8.148559000000
| 29> C 12.133279000000 10.356834000000 9.001967000000
| 30> C 11.425665000000 10.733524000000 7.685994000000
| 31> O 12.058889000000 10.681933000000 6.627220000000
| 32> O 10.210209000000 11.064087000000 7.813054000000
| 33> O 11.463511000000 10.256205000000 10.032459000000
| 34> C 11.182707000000 7.973917000000 10.354046000000
| 35> H 10.773313000000 8.146612000000 11.336218000000
| 36> C 12.499514000000 7.791287000000 10.192241000000
| 37> H 13.197070000000 7.884616000000 11.002894000000
| 38> C 13.077512000000 7.812243000000 8.898545000000
| 39> C 12.159935000000 7.475235000000 7.792702000000
| 40> H 12.606512000000 7.246828000000 6.835511000000
| 41> C 10.844316000000 7.409302000000 7.970150000000
| 42> H 10.193336000000 7.140446000000 7.144846000000
| 43> C 10.182694000000 7.780194000000 9.255209000000
| 44> H 9.662105000000 8.724991000000 9.076430000000
| 45> O 9.232277000000 6.791093000000 9.625134000000
| 46> H 8.709838000000 7.118899000000 10.405409000000
| 47> C 14.531322000000 7.361560000000 8.741091000000
| 48> O 15.192345000000 7.157029000000 9.779774000000
| 49> O 14.949009000000 7.263017000000 7.564344000000
| 50> *
| 51> 
| 52>                          ****END OF INPUT****
================================================================================

                       ****************************
                       * Single Point Calculation *
                       ****************************

---------------------------------
CARTESIAN COORDINATES (ANGSTROEM)
---------------------------------
  H      4.850703   12.929978    7.689207
  C      5.346392   11.988262    7.873225
  H      5.818917   11.687204    6.932850
  H      4.604958   11.216892    8.098963
  C      6.387474   11.928130    8.969919
  H      5.903590   12.002705    9.946992
  H      7.075298   12.768926    8.882044
  C      7.142409   10.602734    8.882643
  H      7.892207   10.644706    8.097099
  H      6.447500    9.809447    8.614142
  N      7.759930   10.161740   10.123856
  H      7.531729    9.237844   10.490097
  C      8.665316   10.823272   10.825154
  N      9.186265   11.968733   10.354159
  H      9.469935   11.856414    9.373770
  H      9.971142   12.286641   10.899727
  N      9.004891   10.351892   12.014456
  H      9.687020   10.828265   12.590405
  H      8.669327    9.431744   12.269270
  C     13.493881    9.970208    8.967430
  H     13.996369    9.953698    9.924883
  H     14.096556   10.339812    8.148559
  C     12.133279   10.356834    9.001967
  C     11.425665   10.733524    7.685994
  O     12.058889   10.681933    6.627220
  O     10.210209   11.064087    7.813054
  O     11.463511   10.256205   10.032459
  C     11.182707    7.973917   10.354046
  H     10.773313    8.146612   11.336218
  C     12.499514    7.791287   10.192241
  H     13.197070    7.884616   11.002894
  C     13.077512    7.812243    8.898545
  C     12.159935    7.475235    7.792702
  H     12.606512    7.246828    6.835511
  C     10.844316    7.409302    7.970150
  H     10.193336    7.140446    7.144846
  C     10.182694    7.780194    9.255209
  H      9.662105    8.724991    9.076430
  O      9.232277    6.791093    9.625134
  H      8.709838    7.118899   10.405409
  C     14.531322    7.361560    8.741091
  O     15.192345    7.157029    9.779774
  O     14.949009    7.263017    7.564344

----------------------------
CARTESIAN COORDINATES (A.U.)
----------------------------
  NO LB      ZA    FRAG     MASS         X           Y           Z
   0 H     1.0000    0     1.008    9.166499   24.434118   14.530496
   1 C     6.0000    0    12.011   10.103217   22.654532   14.878239
   2 H     1.0000    0     1.008   10.996160   22.085615   13.101188
   3 H     1.0000    0     1.008    8.702109   21.196854   15.304822
   4 C     6.0000    0    12.011   12.070577   22.540899   16.950690
   5 H     1.0000    0     1.008   11.156168   22.681825   18.797091
   6 H     1.0000    0     1.008   13.370376   24.129773   16.784631
   7 C     6.0000    0    12.011   13.497197   20.036264   16.785763
   8 H     1.0000    0     1.008   14.914110   20.115579   15.301300
   9 H     1.0000    0     1.008   12.184009   18.537168   16.278369
  10 N     7.0000    0    14.007   14.664143   19.202906   19.131315
  11 H     1.0000    0     1.008   14.232905   17.456995   19.823410
  12 C     6.0000    0    12.011   16.375074   20.453020   20.456576
  13 N     7.0000    0    14.007   17.359525   22.617628   19.566525
  14 H     1.0000    0     1.008   17.895584   22.405375   17.713858
  15 H     1.0000    0     1.008   18.842728   23.218387   20.597499
  16 N     7.0000    0    14.007   17.016778   19.562241   22.704031
  17 H     1.0000    0     1.008   18.305815   20.462455   23.792417
  18 H     1.0000    0     1.008   16.382654   17.823413   23.185560
  19 C     6.0000    0    12.011   25.499740   18.840963   16.945987
  20 H     1.0000    0     1.008   26.449304   18.809763   18.755311
  21 H     1.0000    0     1.008   26.638630   19.539413   15.398545
  22 C     6.0000    0    12.011   22.928574   19.571580   17.011252
  23 C     6.0000    0    12.011   21.591378   20.283421   14.524424
  24 O     8.0000    0    15.999   22.787998   20.185928   12.523631
  25 O     8.0000    0    15.999   19.294499   20.908094   14.764532
  26 O     8.0000    0    15.999   21.662896   19.381419   18.958600
  27 C     6.0000    0    12.011   21.132254   15.068519   19.566311
  28 H     1.0000    0     1.008   20.358611   15.394866   21.422347
  29 C     6.0000    0    12.011   23.620658   14.723399   19.260544
  30 H     1.0000    0     1.008   24.938848   14.899765   20.792456
  31 C     6.0000    0    12.011   24.712916   14.763000   16.815813
  32 C     6.0000    0    12.011   22.978947   14.126147   14.726073
  33 H     1.0000    0     1.008   23.822855   13.694520   12.917244
  34 C     6.0000    0    12.011   20.492787   14.001552   15.061401
  35 H     1.0000    0     1.008   19.262613   13.493487   13.501802
  36 C     6.0000    0    12.011   19.242503   14.702436   17.489810
  37 H     1.0000    0     1.008   18.258732   16.487844   17.151967
  38 O     8.0000    0    15.999   17.446475   12.833306   18.188867
  39 H     1.0000    0     1.008   16.459208   13.452769   19.663373
  40 C     6.0000    0    12.011   27.460219   13.911332   16.518268
  41 O     8.0000    0    15.999   28.709371   13.524825   18.481095
  42 O     8.0000    0    15.999   28.249533   13.725113   14.294539

--------------------------------
INTERNAL COORDINATES (ANGSTROEM)
--------------------------------
 H      0   0   0     0.000000000000     0.00000000     0.00000000
 C      1   0   0     1.080000000000     0.00000000     0.00000000
 H      2   1   0     1.094632785739   106.95177722     0.00000000
 H      2   1   3     1.093477799455   109.82041397   245.37975994
 C      2   1   3     1.513342432427   118.28556142   122.51970770
 H      5   2   1     1.092875474796   109.91292694    70.83707693
 H      5   2   1     1.089844844103   110.18694199   312.68073120
 C      5   2   1     1.527814946653   109.45099613   190.77675006
 H      8   5   2     1.086755752469   110.40819937    79.11763294
 H      8   5   2     1.088253449179   109.32600870   321.80748841
 N      8   5   2     1.454791258169   115.08588645   203.83270650
 H     11   8   5     1.019701910020   119.08412743   124.54544359
 C     11   8   5     1.322560879818   126.25421289   301.04778596
 N     13  11   8     1.343616408484   120.39558339   354.31439144
 H     14  13  11     1.026765220477   110.39983825   312.69963524
 H     14  13  11     1.007343955269   112.41372287   189.90596947
 N     13  11   8     1.323612304351   118.29069871   172.01322882
 H     17  13  11     1.011903383911   121.11151401   180.53708544
 H     17  13  11     1.012030490942   117.70813365     9.61727573
 C     15  14  13     4.462625536716   112.47589730   277.43430340
 H     20  15  14     1.081426380968   110.17046334   347.60436891
 H     20  15  14     1.081838244416   115.26728519   215.99398951
 C     20  15  14     1.414888783845     9.99551252   111.05376308
 C     23  20  21     1.540908130235   119.17986531   165.64230521
 O     24  23  20     1.234761778050   119.11646934     0.45221273
 O     24  23  20     1.265997404620   114.77168688   179.89769566
 O     23  20  21     1.233137920725   121.35918370   337.44220299
 C     27  23  20     2.321875879527   105.16749690   290.23628517
 H     28  27  23     1.078002248534    90.83952144   170.11752896
 C     28  27  23     1.339221882353    89.90815003    49.76146606
 H     30  28  27     1.073523619575   122.39921578    86.02085653
 C     30  28  27     1.417099214013   120.61919032   282.72019327
 C     32  30  28     1.475943997461   115.28062269   335.33066608
 H     33  32  30     1.080655072194   117.06454585   194.44943841
 C     33  32  30     1.329168276161   121.77944553    12.22559159
 H     35  33  32     1.084981659546   120.30591798   181.19372048
 C     35  33  32     1.492206815434   122.78621333     5.36957873
 H     37  35  33     1.093442366552   106.56219000   108.23849179
 O     37  35  33     1.420724381333   110.35285599   226.44604455
 H     39  37  35     0.994599596814   109.03860841   188.31302210
 C     32  30  28     1.530186408483   118.49605923   190.44450872
 O     41  32  30     1.248057174563   117.76436306   351.15148456
 O     41  32  30     1.252560040408   115.89124095   172.67350925

---------------------------
INTERNAL COORDINATES (A.U.)
---------------------------
 H      0   0   0     0.000000000000     0.00000000     0.00000000
 C      1   0   0     2.040904224635     0.00000000     0.00000000
 H      2   1   0     2.068556182257   106.95177722     0.00000000
 H      2   1   3     2.066373574492   109.82041397   245.37975994
 C      2   1   3     2.859802744129   118.28556142   122.51970770
 H      5   2   1     2.065235345843   109.91292694    70.83707693
 H      5   2   1     2.059508283820   110.18694199   312.68073120
 C      5   2   1     2.887151832486   109.45099613   190.77675006
 H      8   5   2     2.053670746630   110.40819937    79.11763294
 H      8   5   2     2.056500983244   109.32600870   321.80748841
 N      8   5   2     2.749157059963   115.08588645   203.83270650
 H     11   8   5     1.926957348174   119.08412743   124.54544359
 C     11   8   5     2.499277858293   126.25421289   301.04778596
 N     13  11   8     2.539067041077   120.39558339   354.31439144
 H     14  13  11     1.940305070538   110.39983825   312.69963524
 H     14  13  11     1.903604198119   112.41372287   189.90596947
 N     13  11   8     2.501264762712   118.29069871   172.01322882
 H     17  13  11     1.912220269580   121.11151401   180.53708544
 H     17  13  11     1.912460467058   117.70813365     9.61727573
 C     15  14  13     8.433140102637   112.47589730   277.43430340
 H     20  15  14     2.043599694027   110.17046334   347.60436891
 H     20  15  14     2.044378003149   115.26728519   215.99398951
 C     20  15  14     2.673752311423     9.99551252   111.05376308
 C     23  20  21     2.911894363677   119.17986531   165.64230521
 O     24  23  20     2.333361601148   119.11646934     0.45221273
 O     24  23  20     2.392388380987   114.77168688   179.89769566
 O     23  20  21     2.330292955523   121.35918370   337.44220299
 C     27  23  20     4.387709529263   105.16749690   290.23628517
 H     28  27  23     2.037129021481    90.83952144   170.11752896
 C     28  27  23     2.530762590202    89.90815003    49.76146606
 H     30  28  27     2.028665639293   122.39921578    86.02085653
 C     30  28  27     2.677929419079   120.61919032   282.72019327
 C     32  30  28     2.789129944207   115.28062269   335.33066608
 H     33  32  30     2.042142131680   117.06454585   194.44943841
 C     33  32  30     2.511764027841   121.77944553    12.22559159
 H     35  33  32     2.050318196870   120.30591798   181.19372048
 C     35  33  32     2.819862216342   122.78621333     5.36957873
 H     37  35  33     2.066306616010   106.56219000   108.23849179
 O     37  35  33     2.684779992505   110.35285599   226.44604455
 H     39  37  35     1.879520850886   109.03860841   188.31302210
 C     32  30  28     2.891633245881   118.49605923   190.44450872
 O     41  32  30     2.358486259400   117.76436306   351.15148456
 O     41  32  30     2.366995442665   115.89124095   172.67350925

---------------------
BASIS SET INFORMATION
---------------------
There are 4 groups of distinct atoms

 Group   1 Type H   : 6s3p2d1f contracted to 4s3p2d1f pattern {3111/111/11/1}
 Group   2 Type C   : 21s6p3d2f1g contracted to 5s4p3d2f1g pattern {99111/3111/111/11/1}
 Group   3 Type N   : 21s6p3d2f1g contracted to 5s4p3d2f1g pattern {99111/3111/111/11/1}
 Group   4 Type O   : 21s6p3d2f1g contracted to 5s4p3d2f1g pattern {99111/3111/111/11/1}

Atom   0H    basis set group =>   1
Atom   1C    basis set group =>   2
Atom   2H    basis set group =>   1
Atom   3H    basis set group =>   1
Atom   4C    basis set group =>   2
Atom   5H    basis set group =>   1
Atom   6H    basis set group =>   1
Atom   7C    basis set group =>   2
Atom   8H    basis set group =>   1
Atom   9H    basis set group =>   1
Atom  10N    basis set group =>   3
Atom  11H    basis set group =>   1
Atom  12C    basis set group =>   2
Atom  13N    basis set group =>   3
Atom  14H    basis set group =>   1
Atom  15H    basis set group =>   1
Atom  16N    basis set group =>   3
Atom  17H    basis set group =>   1
Atom  18H    basis set group =>   1
Atom  19C    basis set group =>   2
Atom  20H    basis set group =>   1
Atom  21H    basis set group =>   1
Atom  22C    basis set group =>   2
Atom  23C    basis set group =>   2
Atom  24O    basis set group =>   4
Atom  25O    basis set group =>   4
Atom  26O    basis set group =>   4
Atom  27C    basis set group =>   2
Atom  28H    basis set group =>   1
Atom  29C    basis set group =>   2
Atom  30H    basis set group =>   1
Atom  31C    basis set group =>   2
Atom  32C    basis set group =>   2
Atom  33H    basis set group =>   1
Atom  34C    basis set group =>   2
Atom  35H    basis set group =>   1
Atom  36C    basis set group =>   2
Atom  37H    basis set group =>   1
Atom  38O    basis set group =>   4
Atom  39H    basis set group =>   1
Atom  40C    basis set group =>   2
Atom  41O    basis set group =>   4
Atom  42O    basis set group =>   4
---------------------------------
AUXILIARY/C BASIS SET INFORMATION
---------------------------------
There are 4 groups of distinct atoms

 Group   1 Type H   : 5s4p3d2f1g contracted to 5s4p3d2f1g pattern {11111/1111/111/11/1}
 Group   2 Type C   : 8s7p6d5f3g1h contracted to 8s7p6d5f3g1h pattern {11111111/1111111/111111/11111/111/1}
 Group   3 Type N   : 8s7p6d5f3g1h contracted to 8s7p6d5f3g1h pattern {11111111/1111111/111111/11111/111/1}
 Group   4 Type O   : 8s7p6d5f3g1h contracted to 8s7p6d5f3g1h pattern {11111111/1111111/111111/11111/111/1}

Atom   0H    basis set group =>   1
Atom   1C    basis set group =>   2
Atom   2H    basis set group =>   1
Atom   3H    basis set group =>   1
Atom   4C    basis set group =>   2
Atom   5H    basis set group =>   1
Atom   6H    basis set group =>   1
Atom   7C    basis set group =>   2
Atom   8H    basis set group =>   1
Atom   9H    basis set group =>   1
Atom  10N    basis set group =>   3
Atom  11H    basis set group =>   1
Atom  12C    basis set group =>   2
Atom  13N    basis set group =>   3
Atom  14H    basis set group =>   1
Atom  15H    basis set group =>   1
Atom  16N    basis set group =>   3
Atom  17H    basis set group =>   1
Atom  18H    basis set group =>   1
Atom  19C    basis set group =>   2
Atom  20H    basis set group =>   1
Atom  21H    basis set group =>   1
Atom  22C    basis set group =>   2
Atom  23C    basis set group =>   2
Atom  24O    basis set group =>   4
Atom  25O    basis set group =>   4
Atom  26O    basis set group =>   4
Atom  27C    basis set group =>   2
Atom  28H    basis set group =>   1
Atom  29C    basis set group =>   2
Atom  30H    basis set group =>   1
Atom  31C    basis set group =>   2
Atom  32C    basis set group =>   2
Atom  33H    basis set group =>   1
Atom  34C    basis set group =>   2
Atom  35H    basis set group =>   1
Atom  36C    basis set group =>   2
Atom  37H    basis set group =>   1
Atom  38O    basis set group =>   4
Atom  39H    basis set group =>   1
Atom  40C    basis set group =>   2
Atom  41O    basis set group =>   4
Atom  42O    basis set group =>   4


           ************************************************************
           *        Program running with 32 parallel MPI-processes    *
           *              working on a common directory               *
           ************************************************************
------------------------------------------------------------------------------
                           ORCA GTO INTEGRAL CALCULATION
------------------------------------------------------------------------------
------------------------------------------------------------------------------
                   ___                                                        
                  /   \      - P O W E R E D   B Y -                         
                 /     \                                                     
                 |  |  |   _    _      __       _____    __    __             
                 |  |  |  | |  | |    /  \     |  _  \  |  |  /  |          
                  \  \/   | |  | |   /    \    | | | |  |  | /  /          
                 / \  \   | |__| |  /  /\  \   | |_| |  |  |/  /          
                |  |  |   |  __  | /  /__\  \  |    /   |      \           
                |  |  |   | |  | | |   __   |  |    \   |  |\   \          
                \     /   | |  | | |  |  |  |  | |\  \  |  | \   \       
                 \___/    |_|  |_| |__|  |__|  |_| \__\ |__|  \__/        
                                                                              
                      - O R C A' S   B I G   F R I E N D -                    
                                      &                                       
                       - I N T E G R A L  F E E D E R -                       
                                                                              
 v1 FN, 2020, v2 2021                                                         
------------------------------------------------------------------------------


Reading SHARK input file input.SHARKINP.tmp ... ok
----------------------
SHARK INTEGRAL PACKAGE
----------------------

Number of atoms                             ...     43
Number of basis functions                   ...   2026
Number of shells                            ...    706
Maximum angular momentum                    ...      4
Integral batch strategy                     ... SHARK/LIBINT Hybrid
RI-J (if used) integral strategy            ... SPLIT-RIJ (Revised 2003 algorithm where possible)
Printlevel                                  ...      1
Contraction scheme used                     ... PARTIAL GENERAL contraction
Coulomb Range Separation                    ... NOT USED
Exchange Range Separation                   ... NOT USED
Finite Nucleus Model                        ... NOT USED
Auxiliary Coulomb fitting basis             ... NOT available
Auxiliary J/K fitting basis                 ... NOT available
Auxiliary Correlation fitting basis         ... AVAILABLE
   # of basis functions in Aux-C            ...   4136
   # of shells in Aux-C                     ...    990
   Maximum angular momentum in Aux-C        ...      5
Auxiliary 'external' fitting basis          ... NOT available
Integral threshold                          ...     2.500000e-11
Primitive cut-off                           ...     2.500000e-12
Primitive pair pre-selection threshold      ...     2.500000e-12

Calculating pre-screening integrals         ... done (  0.4 sec) Dimension = 706
Calculating pre-screening integrals (ORCA)  ... done (  0.6 sec) Dimension = 545
Organizing shell pair data                  ... done (  1.8 sec)
Shell pair information
Total number of shell pairs                 ...    249571
Shell pairs after pre-screening             ...    121920
Total number of primitive shell pairs       ...    314157
Primitive shell pairs kept                  ...    138159
          la=0 lb=0:  25330 shell pairs
          la=1 lb=0:  28721 shell pairs
          la=1 lb=1:   7638 shell pairs
          la=2 lb=0:  18091 shell pairs
          la=2 lb=1:  10152 shell pairs
          la=2 lb=2:   3384 shell pairs
          la=3 lb=0:  10034 shell pairs
          la=3 lb=1:   5858 shell pairs
          la=3 lb=2:   3830 shell pairs
          la=3 lb=3:   1116 shell pairs
          la=4 lb=0:   3478 shell pairs
          la=4 lb=1:   2034 shell pairs
          la=4 lb=2:   1346 shell pairs
          la=4 lb=3:    767 shell pairs
          la=4 lb=4:    141 shell pairs

Calculating one electron integrals          ... done (  0.4 sec)
Calculating RI/C V-Matrix + Cholesky decomp.... done (  1.0 sec)
Calculating Nuclear repulsion               ... done (  0.0 sec) ENN=   2106.010507424692 Eh

SHARK setup successfully completed in   6.7 seconds

Maximum memory used throughout the entire GTOINT-calculation: 180.9 MB


           ************************************************************
           *        Program running with 32 parallel MPI-processes    *
           *              working on a common directory               *
           ************************************************************
-------------------------------------------------------------------------------
                                 ORCA SCF
-------------------------------------------------------------------------------

------------
SCF SETTINGS
------------
Hamiltonian:
 Ab initio Hamiltonian  Method          .... Hartree-Fock(GTOs)


General Settings:
 Integral files         IntName         .... input
 Hartree-Fock type      HFTyp           .... RHF
 Total Charge           Charge          ....   -1
 Multiplicity           Mult            ....    1
 Number of Electrons    NEL             ....  174
 Basis Dimension        Dim             .... 1865
 Nuclear Repulsion      ENuc            ....   2106.0105074247 Eh

Convergence Acceleration:
 DIIS                   CNVDIIS         .... on
   Start iteration      DIISMaxIt       ....    12
   Startup error        DIISStart       ....  0.200000
   # of expansion vecs  DIISMaxEq       ....     5
   Bias factor          DIISBfac        ....   1.050
   Max. coefficient     DIISMaxC        ....  10.000
 Trust-Rad. Augm. Hess. CNVTRAH         .... auto
   Auto Start mean grad. ratio tolernc. ....  1.125000
   Auto Start start iteration           ....    20
   Auto Start num. interpolation iter.  ....    10
   Max. Number of Micro iterations      ....    16
   Max. Number of Macro iterations      .... Maxiter - #DIIS iter
   Number of Davidson start vectors     ....     2
   Converg. threshold I  (grad. norm)   ....   1.000e-05
   Converg. threshold II (energy diff.) ....   1.000e-08
   Grad. Scal. Fac. for Micro threshold ....   0.100
   Minimum threshold for Micro iter.    ....   0.010
   NR start threshold (gradient norm)   ....   0.001
   Initial trust radius                 ....   0.400
   Minimum AH scaling param. (alpha)    ....   1.000
   Maximum AH scaling param. (alpha)    .... 1000.000
   Orbital update algorithm             .... Taylor
   White noise on init. David. guess    .... on
   Maximum white noise                  ....   0.010
   Quad. conv. algorithm                .... NR
 SOSCF                  CNVSOSCF        .... on
   Start iteration      SOSCFMaxIt      ....   150
   Startup grad/error   SOSCFStart      ....  0.003300
 Level Shifting         CNVShift        .... on
   Level shift para.    LevelShift      ....    0.2500
   Turn off err/grad.   ShiftErr        ....    0.0010
 Zerner damping         CNVZerner       .... off
 Static damping         CNVDamp         .... on
   Fraction old density DampFac         ....    0.7000
   Max. Damping (<1)    DampMax         ....    0.9800
   Min. Damping (>=0)   DampMin         ....    0.0000
   Turn off err/grad.   DampErr         ....    0.1000
 Fernandez-Rico         CNVRico         .... off

SCF Procedure:
 Maximum # iterations   MaxIter         ....   125
 SCF integral mode      SCFMode         .... Direct
   Integral package                     .... SHARK and LIBINT hybrid scheme
 Reset frequency        DirectResetFreq ....    20
 Integral Threshold     Thresh          ....  2.500e-11 Eh
 Primitive CutOff       TCut            ....  2.500e-12 Eh

Convergence Tolerance:
 Convergence Check Mode ConvCheckMode   .... Total+1el-Energy
 Convergence forced     ConvForced      .... 1
 Energy Change          TolE            ....  1.000e-08 Eh
 1-El. energy change                    ....  1.000e-05 Eh
 Orbital Gradient       TolG            ....  1.000e-05
 Orbital Rotation angle TolX            ....  1.000e-05
 DIIS Error             TolErr          ....  5.000e-07


Diagonalization of the overlap matrix:
Smallest eigenvalue                        ... 6.161e-06
Time for diagonalization                   ...    0.480 sec
Threshold for overlap eigenvalues          ... 1.000e-08
Number of eigenvalues below threshold      ... 0
Time for construction of square roots      ...    0.430 sec
Total time needed                          ...    0.927 sec

Time for model grid setup =    0.506 sec

------------------------------
INITIAL GUESS: MODEL POTENTIAL
------------------------------
Loading Hartree-Fock densities                     ... done
Calculating cut-offs                               ... done
Initializing the effective Hamiltonian             ... done
Setting up the integral package (SHARK)            ... done
Starting the Coulomb interaction                   ... done (   0.8 sec)
Reading the grid                                   ... done
Mapping shells                                     ... done
Starting the XC term evaluation                    ... done (   0.6 sec)
Transforming the Hamiltonian                       ... done (   0.3 sec)
Diagonalizing the Hamiltonian                      ... done (   0.5 sec)
Back transforming the eigenvectors                 ... done (   0.1 sec)
Now organizing SCF variables                       ... done
                      ------------------
                      INITIAL GUESS DONE (   3.3 sec)
                      ------------------
--------------
SCF ITERATIONS
--------------
ITER       Energy         Delta-E        Max-DP      RMS-DP      [F,P]     Damp
               ***  Starting incremental Fock matrix formation  ***
  0  -1153.5152995988   0.000000000000 0.23541738  0.00047565  0.3826269 0.7000
  1  -1153.9367757116  -0.421476112834 0.26603847  0.00048480  0.2307222 0.7000
                               ***Turning on DIIS***
  2  -1154.1868524773  -0.250076765626 0.16535025  0.00031545  0.1326400 0.7000
  3  -1156.9902028956  -2.803350418380 0.15428728  0.00047925  0.0783199 0.0000
  4  -1154.6203235529   2.369879342749 0.10380939  0.00015469  0.0076079 0.0000
  5  -1154.7302145750  -0.109891022083 0.03603423  0.00006392  0.0038088 0.0000
                      *** Initiating the SOSCF procedure ***
                           *** Shutting down DIIS ***
                      *** Re-Reading the Fockian *** 
                      *** Removing any level shift *** 
ITER      Energy       Delta-E        Grad      Rot      Max-DP    RMS-DP
  6  -1154.69023775   0.0399768288  0.001890  0.001890  0.021709  0.000037
               *** Restarting incremental Fock matrix formation ***
  7  -1154.71105654  -0.0208187921  0.001309  0.002730  0.010165  0.000021
  8  -1154.71112918  -0.0000726416  0.000650  0.003607  0.010475  0.000022
  9  -1154.71116194  -0.0000327596  0.000179  0.000415  0.004972  0.000008
 10  -1154.71116550  -0.0000035649  0.000094  0.000218  0.001241  0.000003
 11  -1154.71116600  -0.0000004913  0.000033  0.000209  0.000658  0.000001
 12  -1154.71116616  -0.0000001668  0.000014  0.000091  0.000264  0.000000
 13  -1154.71116621  -0.0000000497  0.000005  0.000028  0.000123  0.000000
 14  -1154.71116619   0.0000000185  0.000003  0.000011  0.000022  0.000000
                  ***Gradient check signals convergence***
              ***Rediagonalizing the Fockian in SOSCF/NRSCF***

               *****************************************************
               *                     SUCCESS                       *
               *           SCF CONVERGED AFTER  15 CYCLES          *
               *****************************************************


----------------
TOTAL SCF ENERGY
----------------

Total Energy       :        -1154.71116629 Eh          -31421.28826 eV

Components:
Nuclear Repulsion  :         2106.01050742 Eh           57307.45936 eV
Electronic Energy  :        -3260.72167372 Eh          -88728.74762 eV
One Electron Energy:        -5792.35129290 Eh         -157617.89182 eV
Two Electron Energy:         2531.62961918 Eh           68889.14419 eV

Virial components:
Potential Energy   :        -2308.63533023 Eh          -62821.16110 eV
Kinetic Energy     :         1153.92416394 Eh           31399.87284 eV
Virial Ratio       :            2.00068202


---------------
SCF CONVERGENCE
---------------

  Last Energy change         ...   -9.8998e-08  Tolerance :   1.0000e-08
  Last MAX-Density change    ...    3.4596e-05  Tolerance :   1.0000e-07
  Last RMS-Density change    ...    8.8805e-08  Tolerance :   5.0000e-09
  Last Orbital Gradient      ...    8.8455e-07  Tolerance :   1.0000e-05
  Last Orbital Rotation      ...    3.3924e-06  Tolerance :   1.0000e-05

             **** THE GBW FILE WAS UPDATED (input.gbw) ****
             **** DENSITY input.scfp WAS UPDATED ****
             **** ENERGY FILE WAS UPDATED (input.en.tmp) ****
             **** THE GBW FILE WAS UPDATED (input.gbw) ****
             **** DENSITY input.scfp WAS UPDATED ****
----------------
ORBITAL ENERGIES
----------------

  NO   OCC          E(Eh)            E(eV) 
   0   2.0000     -20.473546      -557.1135 
   1   2.0000     -20.402823      -555.1890 
   2   2.0000     -20.347505      -553.6838 
   3   2.0000     -20.338891      -553.4494 
   4   2.0000     -20.301286      -552.4261 
   5   2.0000     -20.296395      -552.2930 
   6   2.0000     -15.577312      -423.8802 
   7   2.0000     -15.569830      -423.6766 
   8   2.0000     -15.526884      -422.5080 
   9   2.0000     -11.361915      -309.1734 
  10   2.0000     -11.217142      -305.2340 
  11   2.0000     -11.181412      -304.2617 
  12   2.0000     -11.175967      -304.1135 
  13   2.0000     -11.174316      -304.0686 
  14   2.0000     -11.167785      -303.8909 
  15   2.0000     -11.167115      -303.8726 
  16   2.0000     -11.151134      -303.4378 
  17   2.0000     -11.137118      -303.0564 
  18   2.0000     -11.116755      -302.5023 
  19   2.0000     -11.101376      -302.0838 
  20   2.0000     -11.097815      -301.9869 
  21   2.0000     -11.094256      -301.8901 
  22   2.0000     -11.084725      -301.6307 
  23   2.0000      -1.323862       -36.0241 
  24   2.0000      -1.270568       -34.5739 
  25   2.0000      -1.254131       -34.1266 
  26   2.0000      -1.217555       -33.1314 
  27   2.0000      -1.191397       -32.4196 
  28   2.0000      -1.187426       -32.3115 
  29   2.0000      -1.160081       -31.5674 
  30   2.0000      -1.122634       -30.5484 
  31   2.0000      -1.079961       -29.3872 
  32   2.0000      -1.019620       -27.7453 
  33   2.0000      -1.012862       -27.5614 
  34   2.0000      -0.906699       -24.6725 
  35   2.0000      -0.899243       -24.4696 
  36   2.0000      -0.888028       -24.1645 
  37   2.0000      -0.848132       -23.0788 
  38   2.0000      -0.819753       -22.3066 
  39   2.0000      -0.772873       -21.0309 
  40   2.0000      -0.747736       -20.3469 
  41   2.0000      -0.737294       -20.0628 
  42   2.0000      -0.720999       -19.6194 
  43   2.0000      -0.694796       -18.9064 
  44   2.0000      -0.691110       -18.8061 
  45   2.0000      -0.637262       -17.3408 
  46   2.0000      -0.624009       -16.9801 
  47   2.0000      -0.602586       -16.3972 
  48   2.0000      -0.601414       -16.3653 
  49   2.0000      -0.597459       -16.2577 
  50   2.0000      -0.592060       -16.1108 
  51   2.0000      -0.576709       -15.6930 
  52   2.0000      -0.563881       -15.3440 
  53   2.0000      -0.551937       -15.0190 
  54   2.0000      -0.524767       -14.2796 
  55   2.0000      -0.522281       -14.2120 
  56   2.0000      -0.514602       -14.0030 
  57   2.0000      -0.498144       -13.5552 
  58   2.0000      -0.498005       -13.5514 
  59   2.0000      -0.483790       -13.1646 
  60   2.0000      -0.478890       -13.0313 
  61   2.0000      -0.467608       -12.7242 
  62   2.0000      -0.465536       -12.6679 
  63   2.0000      -0.460131       -12.5208 
  64   2.0000      -0.446802       -12.1581 
  65   2.0000      -0.442058       -12.0290 
  66   2.0000      -0.433135       -11.7862 
  67   2.0000      -0.430817       -11.7231 
  68   2.0000      -0.418460       -11.3869 
  69   2.0000      -0.415665       -11.3108 
  70   2.0000      -0.402962       -10.9651 
  71   2.0000      -0.400749       -10.9049 
  72   2.0000      -0.392127       -10.6703 
  73   2.0000      -0.374037       -10.1781 
  74   2.0000      -0.370799       -10.0900 
  75   2.0000      -0.358511        -9.7556 
  76   2.0000      -0.339697        -9.2436 
  77   2.0000      -0.330921        -9.0048 
  78   2.0000      -0.291603        -7.9349 
  79   2.0000      -0.270327        -7.3560 
  80   2.0000      -0.248581        -6.7642 
  81   2.0000      -0.245136        -6.6705 
  82   2.0000      -0.233949        -6.3661 
  83   2.0000      -0.222948        -6.0667 
  84   2.0000      -0.214269        -5.8306 
  85   2.0000      -0.202287        -5.5045 
  86   2.0000      -0.168994        -4.5986 
  87   0.0000       0.121840         3.3154 
  88   0.0000       0.157207         4.2778 
  89   0.0000       0.162696         4.4272 
  90   0.0000       0.185671         5.0524 
  91   0.0000       0.190058         5.1717 
  92   0.0000       0.191311         5.2058 
  93   0.0000       0.206255         5.6125 
  94   0.0000       0.209312         5.6957 
  95   0.0000       0.231149         6.2899 
  96   0.0000       0.234847         6.3905 
  97   0.0000       0.246781         6.7153 
  98   0.0000       0.250731         6.8227 
  99   0.0000       0.254790         6.9332 
 100   0.0000       0.263222         7.1626 
 101   0.0000       0.269089         7.3223 
 102   0.0000       0.271321         7.3830 
 103   0.0000       0.285676         7.7736 
 104   0.0000       0.292737         7.9658 
 105   0.0000       0.301463         8.2032 
 106   0.0000       0.306769         8.3476 
 107   0.0000       0.310942         8.4612 
 108   0.0000       0.318848         8.6763 
 109   0.0000       0.322248         8.7688 
 110   0.0000       0.333783         9.0827 
 111   0.0000       0.339933         9.2501 
 112   0.0000       0.346609         9.4317 
 113   0.0000       0.349393         9.5075 
 114   0.0000       0.358185         9.7467 
 115   0.0000       0.363302         9.8859 
 116   0.0000       0.364280         9.9126 
 117   0.0000       0.377889        10.2829 
 118   0.0000       0.387094        10.5334 
 119   0.0000       0.390928        10.6377 
 120   0.0000       0.398744        10.8504 
 121   0.0000       0.404252        11.0003 
 122   0.0000       0.407316        11.0836 
 123   0.0000       0.418893        11.3987 
 124   0.0000       0.419977        11.4282 
 125   0.0000       0.425384        11.5753 
 126   0.0000       0.429543        11.6885 
 127   0.0000       0.436182        11.8691 
 128   0.0000       0.443738        12.0747 
 129   0.0000       0.450520        12.2593 
 130   0.0000       0.452121        12.3028 
 131   0.0000       0.459501        12.5037 
 132   0.0000       0.467776        12.7288 
 133   0.0000       0.472632        12.8610 
 134   0.0000       0.474655        12.9160 
 135   0.0000       0.482692        13.1347 
 136   0.0000       0.484709        13.1896 
 137   0.0000       0.494649        13.4601 
 138   0.0000       0.495896        13.4940 
 139   0.0000       0.500952        13.6316 
 140   0.0000       0.506780        13.7902 
 141   0.0000       0.509063        13.8523 
 142   0.0000       0.512162        13.9366 
 143   0.0000       0.519601        14.1391 
 144   0.0000       0.522831        14.2269 
 145   0.0000       0.527348        14.3499 
 146   0.0000       0.529692        14.4136 
 147   0.0000       0.533060        14.5053 
 148   0.0000       0.537109        14.6155 
 149   0.0000       0.541702        14.7405 
 150   0.0000       0.545021        14.8308 
 151   0.0000       0.547015        14.8850 
 152   0.0000       0.550936        14.9917 
 153   0.0000       0.554363        15.0850 
 154   0.0000       0.560803        15.2602 
 155   0.0000       0.562494        15.3062 
 156   0.0000       0.569244        15.4899 
 157   0.0000       0.576068        15.6756 
 158   0.0000       0.579555        15.7705 
 159   0.0000       0.583395        15.8750 
 160   0.0000       0.592217        16.1151 
 161   0.0000       0.597871        16.2689 
 162   0.0000       0.600205        16.3324 
 163   0.0000       0.601621        16.3709 
 164   0.0000       0.605172        16.4676 
 165   0.0000       0.606681        16.5086 
 166   0.0000       0.611714        16.6456 
 167   0.0000       0.614682        16.7263 
 168   0.0000       0.617646        16.8070 
 169   0.0000       0.622914        16.9503 
 170   0.0000       0.624534        16.9944 
 171   0.0000       0.631156        17.1746 
 172   0.0000       0.636980        17.3331 
 173   0.0000       0.639961        17.4142 
 174   0.0000       0.644378        17.5344 
 175   0.0000       0.648605        17.6494 
 176   0.0000       0.651969        17.7410 
 177   0.0000       0.656561        17.8659 
 178   0.0000       0.662622        18.0309 
 179   0.0000       0.671954        18.2848 
 180   0.0000       0.672576        18.3017 
 181   0.0000       0.681891        18.5552 
 182   0.0000       0.683911        18.6102 
 183   0.0000       0.690003        18.7759 
 184   0.0000       0.692356        18.8400 
 185   0.0000       0.698060        18.9952 
 186   0.0000       0.701106        19.0781 
 187   0.0000       0.703226        19.1358 
 188   0.0000       0.711160        19.3516 
 189   0.0000       0.714206        19.4345 
 190   0.0000       0.724080        19.7032 
 191   0.0000       0.731935        19.9170 
 192   0.0000       0.733956        19.9720 
 193   0.0000       0.741536        20.1782 
 194   0.0000       0.745211        20.2782 
 195   0.0000       0.747287        20.3347 
 196   0.0000       0.760293        20.6886 
 197   0.0000       0.761752        20.7283 
 198   0.0000       0.765053        20.8182 
 199   0.0000       0.771568        20.9954 
 200   0.0000       0.782832        21.3019 
 201   0.0000       0.786162        21.3926 
 202   0.0000       0.792207        21.5571 
 203   0.0000       0.797396        21.6982 
 204   0.0000       0.798984        21.7414 
 205   0.0000       0.806977        21.9590 
 206   0.0000       0.808642        22.0043 
 207   0.0000       0.816198        22.2099 
 208   0.0000       0.820754        22.3339 
 209   0.0000       0.831153        22.6168 
 210   0.0000       0.834043        22.6955 
 211   0.0000       0.834651        22.7120 
 212   0.0000       0.843721        22.9588 
 213   0.0000       0.847263        23.0552 
 214   0.0000       0.849853        23.1257 
 215   0.0000       0.853784        23.2326 
 216   0.0000       0.861575        23.4446 
 217   0.0000       0.868500        23.6331 
 218   0.0000       0.870851        23.6970 
 219   0.0000       0.875534        23.8245 
 220   0.0000       0.876295        23.8452 
 221   0.0000       0.881590        23.9893 
 222   0.0000       0.885635        24.0994 
 223   0.0000       0.892888        24.2967 
 224   0.0000       0.894400        24.3379 
 225   0.0000       0.902229        24.5509 
 226   0.0000       0.906754        24.6740 
 227   0.0000       0.909560        24.7504 
 228   0.0000       0.914508        24.8850 
 229   0.0000       0.917511        24.9667 
 230   0.0000       0.922676        25.1073 
 231   0.0000       0.929365        25.2893 
 232   0.0000       0.933622        25.4051 
 233   0.0000       0.935120        25.4459 
 234   0.0000       0.940018        25.5792 
 235   0.0000       0.951184        25.8830 
 236   0.0000       0.954036        25.9606 
 237   0.0000       0.955933        26.0123 
 238   0.0000       0.959652        26.1134 
 239   0.0000       0.964199        26.2372 
 240   0.0000       0.970776        26.4162 
 241   0.0000       0.974173        26.5086 
 242   0.0000       0.976262        26.5654 
 243   0.0000       0.981684        26.7130 
 244   0.0000       0.987689        26.8764 
 245   0.0000       0.990361        26.9491 
 246   0.0000       1.000782        27.2327 
 247   0.0000       1.004669        27.3384 
 248   0.0000       1.007571        27.4174 
 249   0.0000       1.013789        27.5866 
 250   0.0000       1.018955        27.7272 
 251   0.0000       1.023956        27.8633 
 252   0.0000       1.028628        27.9904 
 253   0.0000       1.033031        28.1102 
 254   0.0000       1.036175        28.1958 
 255   0.0000       1.041009        28.3273 
 256   0.0000       1.042874        28.3780 
 257   0.0000       1.049432        28.5565 
 258   0.0000       1.051215        28.6050 
 259   0.0000       1.055563        28.7233 
 260   0.0000       1.065171        28.9848 
 261   0.0000       1.066376        29.0176 
 262   0.0000       1.071361        29.1532 
 263   0.0000       1.073233        29.2042 
 264   0.0000       1.075533        29.2667 
 265   0.0000       1.084174        29.5019 
 266   0.0000       1.086830        29.5741 
 267   0.0000       1.087708        29.5980 
 268   0.0000       1.093301        29.7502 
 269   0.0000       1.098412        29.8893 
 270   0.0000       1.106594        30.1120 
 271   0.0000       1.108981        30.1769 
 272   0.0000       1.120621        30.4937 
 273   0.0000       1.122547        30.5461 
 274   0.0000       1.127707        30.6865 
 275   0.0000       1.128582        30.7103 
 276   0.0000       1.136977        30.9387 
 277   0.0000       1.139499        31.0073 
 278   0.0000       1.143038        31.1037 
 279   0.0000       1.146132        31.1878 
 280   0.0000       1.149018        31.2664 
 281   0.0000       1.154640        31.4194 
 282   0.0000       1.161303        31.6007 
 283   0.0000       1.165219        31.7072 
 284   0.0000       1.166947        31.7542 
 285   0.0000       1.172049        31.8931 
 286   0.0000       1.181162        32.1411 
 287   0.0000       1.182093        32.1664 
 288   0.0000       1.187723        32.3196 
 289   0.0000       1.190121        32.3848 
 290   0.0000       1.193778        32.4844 
 291   0.0000       1.199450        32.6387 
 292   0.0000       1.205348        32.7992 
 293   0.0000       1.206378        32.8272 
 294   0.0000       1.209543        32.9133 
 295   0.0000       1.219490        33.1840 
 296   0.0000       1.220374        33.2081 
 297   0.0000       1.225853        33.3572 
 298   0.0000       1.229421        33.4542 
 299   0.0000       1.234307        33.5872 
 300   0.0000       1.237110        33.6635 
 301   0.0000       1.240505        33.7559 
 302   0.0000       1.243728        33.8436 
 303   0.0000       1.247964        33.9588 
 304   0.0000       1.255044        34.1515 
 305   0.0000       1.255469        34.1631 
 306   0.0000       1.262384        34.3512 
 307   0.0000       1.264126        34.3986 
 308   0.0000       1.269809        34.5533 
 309   0.0000       1.271356        34.5953 
 310   0.0000       1.278587        34.7921 
 311   0.0000       1.284947        34.9652 
 312   0.0000       1.288386        35.0588 
 313   0.0000       1.290682        35.1212 
 314   0.0000       1.299778        35.3688 
 315   0.0000       1.300871        35.3985 
 316   0.0000       1.303901        35.4810 
 317   0.0000       1.309773        35.6407 
 318   0.0000       1.313205        35.7341 
 319   0.0000       1.317234        35.8438 
 320   0.0000       1.323774        36.0217 
 321   0.0000       1.328238        36.1432 
 322   0.0000       1.330010        36.1914 
 323   0.0000       1.332208        36.2512 
 324   0.0000       1.337018        36.3821 
 325   0.0000       1.348889        36.7051 
 326   0.0000       1.350621        36.7523 
 327   0.0000       1.354968        36.8706 
 328   0.0000       1.361693        37.0535 
 329   0.0000       1.364180        37.1212 
 330   0.0000       1.369614        37.2691 
 331   0.0000       1.379486        37.5377 
 332   0.0000       1.381208        37.5846 
 333   0.0000       1.390696        37.8428 
 334   0.0000       1.397100        38.0170 
 335   0.0000       1.399949        38.0945 
 336   0.0000       1.403292        38.1855 
 337   0.0000       1.410328        38.3770 
 338   0.0000       1.414814        38.4991 
 339   0.0000       1.418328        38.5947 
 340   0.0000       1.420939        38.6657 
 341   0.0000       1.429130        38.8886 
 342   0.0000       1.429972        38.9115 
 343   0.0000       1.436030        39.0764 
 344   0.0000       1.440919        39.2094 
 345   0.0000       1.442790        39.2603 
 346   0.0000       1.456389        39.6303 
 347   0.0000       1.458573        39.6898 
 348   0.0000       1.470996        40.0278 
 349   0.0000       1.476627        40.1811 
 350   0.0000       1.479281        40.2533 
 351   0.0000       1.489979        40.5444 
 352   0.0000       1.497888        40.7596 
 353   0.0000       1.500634        40.8343 
 354   0.0000       1.502500        40.8851 
 355   0.0000       1.507654        41.0254 
 356   0.0000       1.515123        41.2286 
 357   0.0000       1.519592        41.3502 
 358   0.0000       1.527898        41.5762 
 359   0.0000       1.532922        41.7129 
 360   0.0000       1.534990        41.7692 
 361   0.0000       1.540668        41.9237 
 362   0.0000       1.547680        42.1145 
 363   0.0000       1.554823        42.3089 
 364   0.0000       1.569870        42.7183 
 365   0.0000       1.580145        42.9979 
 366   0.0000       1.584755        43.1234 
 367   0.0000       1.595313        43.4107 
 368   0.0000       1.600392        43.5489 
 369   0.0000       1.605338        43.6835 
 370   0.0000       1.614958        43.9452 
 371   0.0000       1.618832        44.0507 
 372   0.0000       1.633853        44.4594 
 373   0.0000       1.639959        44.6255 
 374   0.0000       1.644264        44.7427 
 375   0.0000       1.651335        44.9351 
 376   0.0000       1.659897        45.1681 
 377   0.0000       1.662092        45.2278 
 378   0.0000       1.672754        45.5180 
 379   0.0000       1.678179        45.6656 
 380   0.0000       1.683597        45.8130 
 381   0.0000       1.685783        45.8725 
 382   0.0000       1.693096        46.0715 
 383   0.0000       1.703747        46.3613 
 384   0.0000       1.710022        46.5321 
 385   0.0000       1.712917        46.6108 
 386   0.0000       1.728831        47.0439 
 387   0.0000       1.734116        47.1877 
 388   0.0000       1.739200        47.3260 
 389   0.0000       1.749034        47.5936 
 390   0.0000       1.754876        47.7526 
 391   0.0000       1.759848        47.8879 
 392   0.0000       1.775444        48.3123 
 393   0.0000       1.777188        48.3597 
 394   0.0000       1.782665        48.5088 
 395   0.0000       1.788137        48.6577 
 396   0.0000       1.795567        48.8599 
 397   0.0000       1.799824        48.9757 
 398   0.0000       1.803667        49.0803 
 399   0.0000       1.811574        49.2954 
 400   0.0000       1.813223        49.3403 
 401   0.0000       1.822197        49.5845 
 402   0.0000       1.824311        49.6420 
 403   0.0000       1.828576        49.7581 
 404   0.0000       1.832564        49.8666 
 405   0.0000       1.844530        50.1922 
 406   0.0000       1.846178        50.2370 
 407   0.0000       1.853425        50.4343 
 408   0.0000       1.854492        50.4633 
 409   0.0000       1.863295        50.7028 
 410   0.0000       1.877369        51.0858 
 411   0.0000       1.882521        51.2260 
 412   0.0000       1.894224        51.5445 
 413   0.0000       1.898157        51.6515 
 414   0.0000       1.906980        51.8916 
 415   0.0000       1.912797        52.0499 
 416   0.0000       1.919016        52.2191 
 417   0.0000       1.923982        52.3542 
 418   0.0000       1.938894        52.7600 
 419   0.0000       1.939419        52.7743 
 420   0.0000       1.941570        52.8328 
 421   0.0000       1.944229        52.9052 
 422   0.0000       1.952417        53.1280 
 423   0.0000       1.961276        53.3690 
 424   0.0000       1.966283        53.5053 
 425   0.0000       1.968564        53.5673 
 426   0.0000       1.976153        53.7738 
 427   0.0000       1.984412        53.9986 
 428   0.0000       1.986922        54.0669 
 429   0.0000       2.000420        54.4342 
 430   0.0000       2.001540        54.4647 
 431   0.0000       2.003027        54.5051 
 432   0.0000       2.007679        54.6317 
 433   0.0000       2.014034        54.8046 
 434   0.0000       2.019674        54.9581 
 435   0.0000       2.023964        55.0749 
 436   0.0000       2.032864        55.3170 
 437   0.0000       2.037328        55.4385 
 438   0.0000       2.047101        55.7045 
 439   0.0000       2.048432        55.7407 
 440   0.0000       2.052205        55.8433 
 441   0.0000       2.059621        56.0451 
 442   0.0000       2.062073        56.1119 
 443   0.0000       2.068442        56.2852 
 444   0.0000       2.071453        56.3671 
 445   0.0000       2.078174        56.5500 
 446   0.0000       2.082480        56.6672 
 447   0.0000       2.090415        56.8831 
 448   0.0000       2.092336        56.9354 
 449   0.0000       2.099530        57.1311 
 450   0.0000       2.107213        57.3402 
 451   0.0000       2.110412        57.4272 
 452   0.0000       2.114050        57.5262 
 453   0.0000       2.118893        57.6580 
 454   0.0000       2.125821        57.8465 
 455   0.0000       2.130486        57.9735 
 456   0.0000       2.134767        58.0900 
 457   0.0000       2.140274        58.2398 
 458   0.0000       2.142945        58.3125 
 459   0.0000       2.145820        58.3907 
 460   0.0000       2.151809        58.5537 
 461   0.0000       2.155290        58.6484 
 462   0.0000       2.156550        58.6827 
 463   0.0000       2.159631        58.7666 
 464   0.0000       2.175276        59.1923 
 465   0.0000       2.177698        59.2582 
 466   0.0000       2.185438        59.4688 
 467   0.0000       2.192649        59.6650 
 468   0.0000       2.194461        59.7143 
 469   0.0000       2.201528        59.9066 
 470   0.0000       2.205315        60.0097 
 471   0.0000       2.209135        60.1136 
 472   0.0000       2.211570        60.1799 
 473   0.0000       2.218064        60.3566 
 474   0.0000       2.223104        60.4937 
 475   0.0000       2.228514        60.6409 
 476   0.0000       2.232515        60.7498 
 477   0.0000       2.235004        60.8175 
 478   0.0000       2.248505        61.1849 
 479   0.0000       2.253480        61.3203 
 480   0.0000       2.255859        61.3851 
 481   0.0000       2.259832        61.4932 
 482   0.0000       2.264466        61.6193 
 483   0.0000       2.268744        61.7357 
 484   0.0000       2.272361        61.8341 
 485   0.0000       2.276222        61.9391 
 486   0.0000       2.284880        62.1748 
 487   0.0000       2.287021        62.2330 
 488   0.0000       2.292986        62.3953 
 489   0.0000       2.295789        62.4716 
 490   0.0000       2.300809        62.6082 
 491   0.0000       2.306317        62.7581 
 492   0.0000       2.314793        62.9887 
 493   0.0000       2.318384        63.0864 
 494   0.0000       2.320359        63.1402 
 495   0.0000       2.322033        63.1857 
 496   0.0000       2.329134        63.3789 
 497   0.0000       2.333359        63.4939 
 498   0.0000       2.336381        63.5762 
 499   0.0000       2.339364        63.6573 
 500   0.0000       2.341255        63.7088 
 501   0.0000       2.350562        63.9620 
 502   0.0000       2.352286        64.0089 
 503   0.0000       2.358021        64.1650 
 504   0.0000       2.362355        64.2830 
 505   0.0000       2.365747        64.3752 
 506   0.0000       2.374723        64.6195 
 507   0.0000       2.375719        64.6466 
 508   0.0000       2.384831        64.8946 
 509   0.0000       2.387133        64.9572 
 510   0.0000       2.394661        65.1620 
 511   0.0000       2.396676        65.2169 
 512   0.0000       2.399539        65.2948 
 513   0.0000       2.409055        65.5537 
 514   0.0000       2.414874        65.7121 
 515   0.0000       2.418939        65.8227 
 516   0.0000       2.424976        65.9870 
 517   0.0000       2.429125        66.0998 
 518   0.0000       2.432036        66.1791 
 519   0.0000       2.433845        66.2283 
 520   0.0000       2.440392        66.4065 
 521   0.0000       2.442791        66.4717 
 522   0.0000       2.448807        66.6354 
 523   0.0000       2.457510        66.8722 
 524   0.0000       2.458138        66.8893 
 525   0.0000       2.462732        67.0143 
 526   0.0000       2.466974        67.1298 
 527   0.0000       2.469247        67.1916 
 528   0.0000       2.475843        67.3711 
 529   0.0000       2.479726        67.4768 
 530   0.0000       2.491587        67.7995 
 531   0.0000       2.494913        67.8900 
 532   0.0000       2.501668        68.0739 
 533   0.0000       2.503048        68.1114 
 534   0.0000       2.505018        68.1650 
 535   0.0000       2.514097        68.4121 
 536   0.0000       2.519576        68.5612 
 537   0.0000       2.523333        68.6634 
 538   0.0000       2.525417        68.7201 
 539   0.0000       2.529250        68.8244 
 540   0.0000       2.536919        69.0331 
 541   0.0000       2.540106        69.1198 
 542   0.0000       2.543728        69.2184 
 543   0.0000       2.557125        69.5829 
 544   0.0000       2.559908        69.6586 
 545   0.0000       2.563013        69.7431 
 546   0.0000       2.564426        69.7816 
 547   0.0000       2.567477        69.8646 
 548   0.0000       2.574157        70.0464 
 549   0.0000       2.577806        70.1457 
 550   0.0000       2.585588        70.3574 
 551   0.0000       2.585904        70.3660 
 552   0.0000       2.594765        70.6071 
 553   0.0000       2.597930        70.6933 
 554   0.0000       2.600336        70.7587 
 555   0.0000       2.608981        70.9940 
 556   0.0000       2.612292        71.0841 
 557   0.0000       2.616075        71.1870 
 558   0.0000       2.617249        71.2190 
 559   0.0000       2.623274        71.3829 
 560   0.0000       2.626418        71.4685 
 561   0.0000       2.638396        71.7944 
 562   0.0000       2.639728        71.8306 
 563   0.0000       2.642243        71.8991 
 564   0.0000       2.644375        71.9571 
 565   0.0000       2.653929        72.2171 
 566   0.0000       2.655291        72.2542 
 567   0.0000       2.664065        72.4929 
 568   0.0000       2.666251        72.5524 
 569   0.0000       2.670494        72.6678 
 570   0.0000       2.677079        72.8470 
 571   0.0000       2.681084        72.9560 
 572   0.0000       2.683926        73.0333 
 573   0.0000       2.689492        73.1848 
 574   0.0000       2.694303        73.3157 
 575   0.0000       2.696403        73.3728 
 576   0.0000       2.703373        73.5625 
 577   0.0000       2.708819        73.7107 
 578   0.0000       2.713642        73.8420 
 579   0.0000       2.714279        73.8593 
 580   0.0000       2.724387        74.1344 
 581   0.0000       2.727298        74.2136 
 582   0.0000       2.735395        74.4339 
 583   0.0000       2.741648        74.6040 
 584   0.0000       2.749960        74.8302 
 585   0.0000       2.756072        74.9965 
 586   0.0000       2.758634        75.0662 
 587   0.0000       2.764288        75.2201 
 588   0.0000       2.765395        75.2502 
 589   0.0000       2.769292        75.3563 
 590   0.0000       2.775403        75.5226 
 591   0.0000       2.780233        75.6540 
 592   0.0000       2.786127        75.8144 
 593   0.0000       2.788244        75.8720 
 594   0.0000       2.795996        76.0829 
 595   0.0000       2.798930        76.1628 
 596   0.0000       2.803568        76.2890 
 597   0.0000       2.804467        76.3134 
 598   0.0000       2.812879        76.5423 
 599   0.0000       2.814972        76.5993 
 600   0.0000       2.819902        76.7334 
 601   0.0000       2.823932        76.8431 
 602   0.0000       2.824704        76.8641 
 603   0.0000       2.831238        77.0419 
 604   0.0000       2.835354        77.1539 
 605   0.0000       2.840504        77.2940 
 606   0.0000       2.845280        77.4240 
 607   0.0000       2.855158        77.6928 
 608   0.0000       2.859550        77.8123 
 609   0.0000       2.863125        77.9096 
 610   0.0000       2.865221        77.9666 
 611   0.0000       2.871890        78.1481 
 612   0.0000       2.875899        78.2572 
 613   0.0000       2.879335        78.3507 
 614   0.0000       2.885469        78.5176 
 615   0.0000       2.891517        78.6822 
 616   0.0000       2.895549        78.7919 
 617   0.0000       2.897551        78.8464 
 618   0.0000       2.901900        78.9647 
 619   0.0000       2.904746        79.0422 
 620   0.0000       2.906331        79.0853 
 621   0.0000       2.913727        79.2866 
 622   0.0000       2.918809        79.4248 
 623   0.0000       2.926163        79.6249 
 624   0.0000       2.930866        79.7529 
 625   0.0000       2.942158        80.0602 
 626   0.0000       2.943165        80.0876 
 627   0.0000       2.947278        80.1995 
 628   0.0000       2.955450        80.4219 
 629   0.0000       2.960154        80.5499 
 630   0.0000       2.962446        80.6123 
 631   0.0000       2.970602        80.8342 
 632   0.0000       2.972840        80.8951 
 633   0.0000       2.975231        80.9601 
 634   0.0000       2.981403        81.1281 
 635   0.0000       2.988567        81.3230 
 636   0.0000       2.991118        81.3925 
 637   0.0000       2.996044        81.5265 
 638   0.0000       2.998768        81.6006 
 639   0.0000       3.007507        81.8384 
 640   0.0000       3.011380        81.9438 
 641   0.0000       3.016086        82.0719 
 642   0.0000       3.024302        82.2954 
 643   0.0000       3.029162        82.4277 
 644   0.0000       3.031860        82.5011 
 645   0.0000       3.037655        82.6588 
 646   0.0000       3.044341        82.8407 
 647   0.0000       3.047820        82.9354 
 648   0.0000       3.057372        83.1953 
 649   0.0000       3.059394        83.2503 
 650   0.0000       3.064793        83.3973 
 651   0.0000       3.070984        83.5657 
 652   0.0000       3.072900        83.6179 
 653   0.0000       3.082853        83.8887 
 654   0.0000       3.088309        84.0372 
 655   0.0000       3.090563        84.0985 
 656   0.0000       3.098681        84.3194 
 657   0.0000       3.106056        84.5201 
 658   0.0000       3.110865        84.6510 
 659   0.0000       3.112277        84.6894 
 660   0.0000       3.121029        84.9275 
 661   0.0000       3.125190        85.0408 
 662   0.0000       3.130563        85.1870 
 663   0.0000       3.131892        85.2231 
 664   0.0000       3.143940        85.5509 
 665   0.0000       3.150703        85.7350 
 666   0.0000       3.158010        85.9338 
 667   0.0000       3.158980        85.9602 
 668   0.0000       3.163480        86.0827 
 669   0.0000       3.171790        86.3088 
 670   0.0000       3.177903        86.4751 
 671   0.0000       3.184921        86.6661 
 672   0.0000       3.192769        86.8797 
 673   0.0000       3.194105        86.9160 
 674   0.0000       3.198798        87.0437 
 675   0.0000       3.207038        87.2680 
 676   0.0000       3.209034        87.3223 
 677   0.0000       3.214708        87.4767 
 678   0.0000       3.221060        87.6495 
 679   0.0000       3.227331        87.8201 
 680   0.0000       3.230829        87.9153 
 681   0.0000       3.235127        88.0323 
 682   0.0000       3.238927        88.1357 
 683   0.0000       3.246073        88.3301 
 684   0.0000       3.257411        88.6386 
 685   0.0000       3.260919        88.7341 
 686   0.0000       3.264530        88.8324 
 687   0.0000       3.275462        89.1299 
 688   0.0000       3.282604        89.3242 
 689   0.0000       3.285922        89.4145 
 690   0.0000       3.292942        89.6055 
 691   0.0000       3.297191        89.7211 
 692   0.0000       3.304152        89.9105 
 693   0.0000       3.306255        89.9678 
 694   0.0000       3.312844        90.1471 
 695   0.0000       3.317055        90.2617 
 696   0.0000       3.320615        90.3585 
 697   0.0000       3.325367        90.4878 
 698   0.0000       3.330676        90.6323 
 699   0.0000       3.343597        90.9839 
 700   0.0000       3.345429        91.0338 
 701   0.0000       3.353191        91.2450 
 702   0.0000       3.355190        91.2994 
 703   0.0000       3.362378        91.4950 
 704   0.0000       3.369186        91.6802 
 705   0.0000       3.376463        91.8782 
 706   0.0000       3.379738        91.9674 
 707   0.0000       3.385689        92.1293 
 708   0.0000       3.391383        92.2842 
 709   0.0000       3.401754        92.5664 
 710   0.0000       3.407417        92.7205 
 711   0.0000       3.412842        92.8682 
 712   0.0000       3.413549        92.8874 
 713   0.0000       3.428960        93.3068 
 714   0.0000       3.435514        93.4851 
 715   0.0000       3.439114        93.5831 
 716   0.0000       3.441440        93.6463 
 717   0.0000       3.449234        93.8584 
 718   0.0000       3.455462        94.0279 
 719   0.0000       3.459361        94.1340 
 720   0.0000       3.463971        94.2594 
 721   0.0000       3.470155        94.4277 
 722   0.0000       3.480020        94.6962 
 723   0.0000       3.482270        94.7574 
 724   0.0000       3.487123        94.8894 
 725   0.0000       3.492611        95.0388 
 726   0.0000       3.502840        95.3171 
 727   0.0000       3.504708        95.3680 
 728   0.0000       3.512419        95.5778 
 729   0.0000       3.518799        95.7514 
 730   0.0000       3.525326        95.9290 
 731   0.0000       3.531923        96.1085 
 732   0.0000       3.534919        96.1900 
 733   0.0000       3.544272        96.4445 
 734   0.0000       3.545316        96.4730 
 735   0.0000       3.549552        96.5882 
 736   0.0000       3.559276        96.8528 
 737   0.0000       3.566405        97.0468 
 738   0.0000       3.570043        97.1458 
 739   0.0000       3.579468        97.4023 
 740   0.0000       3.582357        97.4809 
 741   0.0000       3.586511        97.5939 
 742   0.0000       3.590735        97.7089 
 743   0.0000       3.595914        97.8498 
 744   0.0000       3.608657        98.1965 
 745   0.0000       3.612911        98.3123 
 746   0.0000       3.616821        98.4187 
 747   0.0000       3.620878        98.5291 
 748   0.0000       3.629197        98.7555 
 749   0.0000       3.633819        98.8812 
 750   0.0000       3.641342        99.0860 
 751   0.0000       3.645118        99.1887 
 752   0.0000       3.651061        99.3504 
 753   0.0000       3.657296        99.5201 
 754   0.0000       3.664204        99.7081 
 755   0.0000       3.669573        99.8542 
 756   0.0000       3.672072        99.9222 
 757   0.0000       3.673846        99.9704 
 758   0.0000       3.692955       100.4904 
 759   0.0000       3.697256       100.6075 
 760   0.0000       3.703048       100.7651 
 761   0.0000       3.714545       101.0779 
 762   0.0000       3.721552       101.2686 
 763   0.0000       3.725140       101.3662 
 764   0.0000       3.731829       101.5482 
 765   0.0000       3.735745       101.6548 
 766   0.0000       3.740899       101.7950 
 767   0.0000       3.746895       101.9582 
 768   0.0000       3.755079       102.1809 
 769   0.0000       3.762347       102.3787 
 770   0.0000       3.772209       102.6470 
 771   0.0000       3.784844       102.9908 
 772   0.0000       3.791436       103.1702 
 773   0.0000       3.793238       103.2193 
 774   0.0000       3.798309       103.3573 
 775   0.0000       3.808536       103.6355 
 776   0.0000       3.815484       103.8246 
 777   0.0000       3.822003       104.0020 
 778   0.0000       3.825389       104.0941 
 779   0.0000       3.830854       104.2428 
 780   0.0000       3.838328       104.4462 
 781   0.0000       3.854930       104.8980 
 782   0.0000       3.857573       104.9699 
 783   0.0000       3.863585       105.1335 
 784   0.0000       3.867755       105.2470 
 785   0.0000       3.874111       105.4199 
 786   0.0000       3.875706       105.4633 
 787   0.0000       3.881020       105.6079 
 788   0.0000       3.890693       105.8711 
 789   0.0000       3.893397       105.9447 
 790   0.0000       3.899164       106.1016 
 791   0.0000       3.905797       106.2821 
 792   0.0000       3.911124       106.4271 
 793   0.0000       3.914433       106.5171 
 794   0.0000       3.917454       106.5993 
 795   0.0000       3.932689       107.0139 
 796   0.0000       3.936383       107.1144 
 797   0.0000       3.942422       107.2787 
 798   0.0000       3.944372       107.3318 
 799   0.0000       3.952111       107.5424 
 800   0.0000       3.963107       107.8416 
 801   0.0000       3.967291       107.9555 
 802   0.0000       3.973569       108.1263 
 803   0.0000       3.980178       108.3062 
 804   0.0000       3.986234       108.4709 
 805   0.0000       3.987419       108.5032 
 806   0.0000       3.996213       108.7425 
 807   0.0000       4.002606       108.9165 
 808   0.0000       4.005377       108.9919 
[...]
    TCutMKN            =        1.000e-03
    TCutDO             =        5.000e-03

Pair selection                          .... not used
Type of local MP2 treatment                 .... full local PMP2
Strategy for PNO selection                  .... occupation number selection
Pair density normalization                  .... MP2 norm
Spin component scaling                      .... not used

PASS-1: Formation of initial guess LMP2 amplitudes
Initial amplitudes guess done. Entering LMP2 iteration loop:
   Max. no of iterations          ...  50
   Energy convergence tolerance   ...    1.0e-07
   Residual convergence tolerance ...    5.0e-07
   Fock matrix cutoff             ...    1.0e-05 Eh
   DIIS convergence acceleration parameters:
        Max # vectors in DIIS     ... 7
        Start iteration of DIIS   ... 0
        Levelshift                ... 2.000e-01
        Damping factor 1          ... 5.000e-01
        Damping factor 2          ... 1.000e+00
   L-MP2 PNO cut-off              ...   1.0e-09
   L-MP2 PNO cut-off (core)       ...   1.0e-11
                           *** Turning on DIIS ***
LMP2-Iter=   0:  ELMP2= -4.585641921737  DE=   1.1e-01 RMAX=   1.4e-02
LMP2-Iter=   1:  ELMP2= -4.642095629371  DE=   5.6e-02 RMAX=   7.0e-03
LMP2-Iter=   2:  ELMP2= -4.653878292364  DE=   1.2e-02 RMAX=   3.1e-03
LMP2-Iter=   3:  ELMP2= -4.655631753380  DE=   1.8e-03 RMAX=   1.2e-03
LMP2-Iter=   4:  ELMP2= -4.655679655534  DE=   4.8e-05 RMAX=   4.1e-04
LMP2-Iter=   5:  ELMP2= -4.655639097481  DE=   4.1e-05 RMAX=   1.2e-04
LMP2-Iter=   6:  ELMP2= -4.655632735058  DE=   6.4e-06 RMAX=   2.4e-05
LMP2-Iter=   7:  ELMP2= -4.655634361157  DE=   1.6e-06 RMAX=   6.9e-06
LMP2-Iter=   8:  ELMP2= -4.655635218095  DE=   8.6e-07 RMAX=   1.8e-06
LMP2-Iter=   9:  ELMP2= -4.655635159586  DE=   5.9e-08 RMAX=   5.8e-07
LMP2-Iter=  10:  ELMP2= -4.655635138097  DE=   2.1e-08 RMAX=   1.4e-07
LMP2-Iter=  11:  ELMP2= -4.655635099055  DE=   3.9e-08 RMAX=   3.7e-08 => CONVERGED
PASS-2: Formation of Pair natural orbitals
   .... Finished loop over pairs

 PNO Occupation Number Statistics: 
  | Av. % of trace(Dij) retained        ...  97.890562422563
  | sigma^2 in % of trace(Dij) retained ...   7.62e+00
  | Av. % of trace(Di) retained         ...  99.999496461810
  | sigma^2 in % of trace(Di) retained  ...   2.13e-08
 Distributions of % trace(Dij) recovered:
  |       >= 99.9  ...   212 ( 11.6 % of all pairs)
  |   [70.0, 80.0) ...     5 (  0.3 % of all pairs)
  |   [80.0, 90.0) ...    53 (  2.9 % of all pairs)
  |   [90.0, 99.0) ...  1017 ( 55.7 % of all pairs)
  |   [99.0, 99.9) ...   539 ( 29.5 % of all pairs)
 Distributions of % trace(Di) recovered :
  |       >= 99.9  ...    64 (100.0 % of all I-pairs )

Making pair pair interaction lists          ... done

                       ===========================
                       1288 OF 1826 PAIRS ARE KEPT
                       ===========================

Total time spent in the initial guess                 ...  3071.585 sec
L-MP2 correlation energy (all non-screened pairs)     ...      -4.655635099055 Eh
L-MP2 PNO error correction                            ...      -0.000374311229 Eh
                                                          --------------------
Initial total L-MP2 energy (non-screened pairs)       ...      -4.656009410284 Eh

Initial PNO correlation energy                        ...      -4.643768770788 Eh
sum of pair energies estimated for screened out pairs ...      -0.000105914884 Eh
sum of MP2 pair energies for pairs that were not kept ...      -0.002799095278 Eh
sum of PNO error estimates for the kept pairs         ...      -0.010073623557 Eh
                                                          --------------------
sum of all corrections                                         -0.012978633719
Initial total correlation energy                               -4.656747404506
Thresholds for map construction and integral transformation for fine MP2 and CCSD(T) calculation:
   TCutMKN   ...     1.0e-03
   TCutDO    ...     5.0e-03
   TCutPairs ...     1.0e-05
   TCutCMO   ...     1.0e-03
   TCutCPAO  ...     1.0e-03

Time for aux screen maps:            0.032
Time for maps after fine MP2:            0.250
-----------------------------
LOCAL RI TRANSFORMATION (IJV)
-----------------------------

Orbital window:      23 to 86
Basis functions:   1865 (545 shells)
Aux. functions:    4136 (990 shells)
Use SHARK:           on

Processing maps (0.0 sec)
Average map sizes:
   Aux shells -> MOs(i)           58.0
   Aux shells -> MOs(j)           64.0
   MOs        -> AO shells       484.3

Calculating integrals (15.2 sec, 117.588 MB)
Sorting integrals (0.4 sec, 117.542 MB)
Total time for the integral transformation: 15.6 sec
--------------------------------
LOCAL RI TRANSFORMATION (VABPAO)
--------------------------------

Number of PAOs:    1865
Basis functions:   1865 (545 shells)
Aux. functions:    4136 (990 shells)
Use SHARK:           on

Processing maps (0.0 sec)
Average map sizes:
   Aux shells -> PAOs           1855.3
   PAOs       -> AO shells       535.2

Calculating integrals (464.0 sec, 108606.014 MB)
Finished


-------------------------------------
Pair Pair Term precalculation with     
RI-(ij|mn) and (im|jn) transformation  
ON THE FLY                             
-------------------------------------

   IBatch   1 (of   8)              ... done (  988.264 sec)
   IBatch   2 (of   8)              ... done (  785.494 sec)
   IBatch   3 (of   8)              ... done (  882.888 sec)
   IBatch   4 (of   8)              ... done (  719.305 sec)
   IBatch   5 (of   8)              ... done (  808.246 sec)
   IBatch   6 (of   8)              ... done (  958.517 sec)
   IBatch   7 (of   8)              ... done ( 1127.788 sec)
   IBatch   8 (of   8)              ... done (  495.987 sec)
Total EXT                           ...        6766.519 sec

---------------------
RI-PNO TRANSFORMATION
---------------------

Total Number of PNOs                   ... 46428
Average number of PNOs per pair        ...    36
Maximal number of PNOs per pair        ...   137
   #pairs with  1 -  5 PNOs   :    0
   #pairs with  6 - 10 PNOs   :  290
   #pairs with 11 - 15 PNOs   :  155
   #pairs with 16 - 20 PNOs   :   98
   #pairs with 21 - 25 PNOs   :   66
   #pairs with 26 - 30 PNOs   :   89
   #pairs with 31 - 35 PNOs   :   85
   #pairs with 36 - 40 PNOs   :   65
   #pairs with 41 - 45 PNOs   :   49
   #pairs with 46 - 50 PNOs   :   21
   #pairs with 51 - 55 PNOs   :   45
   #pairs with 56 - 60 PNOs   :   42
   #pairs with 61 - 65 PNOs   :   40
   #pairs with 66 - 70 PNOs   :   32
   #pairs with 71 - 75 PNOs   :   10
   #pairs with 76 - 80 PNOs   :   55
   #pairs with 81 - 85 PNOs   :   40
   #pairs with 86 - 90 PNOs   :   24
   #pairs with 91 - 95 PNOs   :   41
   #pairs with > 96 PNOs      :   41

Generation of (ij|ab)[P] integrals            ... on
Generation of (ia|bc)[P],(ja|bc)[P] integrals ... on
Storage of 3 and 4 external integrals         ... on
Generation of ALL (ka|bc)[P] integrals        ... on
Keep RI integrals in memory                   ... off

Ibatch:  1 (of  1)
Starting 2-4 index PNO integral generation ... done

Timings:
Total PNO integral transformation time     ...       3636.374 sec
Size of the 3-external file                ...      1559 MB
Size of the 4-external file                ...     16276 MB
Size of the IKJL file                      ...         0 MB
Size of the all 3-external file            ...     47219 MB
Size of the 1-external file                ...        65 MB

Making pair/pair overlap matrices          ... done (  873.726 sec)
Size of the pair overlap file              ... 11329 MB
Redoing the guess amplitudes               ... done (    0.195 sec)

-------------------------
FINAL STARTUP INFORMATION
-------------------------

E(0)                                       ...  -1154.711166188
E(L-MP2)                                   ...     -4.656009410
E(L-MP2) including corrections             ...     -4.656747405
Initial E(tot)                             ...  -1159.367913592
<T|T>                                      ...      1.151222354
Number of pairs included                   ... 1288
Total number of pairs                      ... 2080

------------------------------------------------
                  RHF COUPLED CLUSTER ITERATIONS
------------------------------------------------

Number of PNO amplitudes to be optimized   ...      2730744
Number of non-PNO amplitudes               ...   4071733792
Untruncated number of regular amplitudes   ...   6575470720

Iter       E(tot)           E(Corr)          Delta-E          Residual     Time
  0  -1159.189350756     -4.465205934      0.190803476      0.017011814 2646.78
                           *** Turning on DIIS ***
  1  -1159.243711725     -4.519566903     -0.054360969      0.009756614 2578.93
  2  -1159.343716042     -4.619571220     -0.100004317      0.004777153 2642.86
  3  -1159.367620250     -4.643475428     -0.023904208      0.003469390 2710.59
  4  -1159.374820435     -4.650675613     -0.007200185      0.001812258 2647.56
  5  -1159.377243354     -4.653098533     -0.002422920      0.001016850 2656.26
  6  -1159.377837660     -4.653692839     -0.000594306      0.000530633 2689.54
  7  -1159.377982884     -4.653838062     -0.000145223      0.000284263 2520.80
  8  -1159.378015718     -4.653870896     -0.000032834      0.000152545 2500.62
  9  -1159.377989179     -4.653844357      0.000026539      0.000068789 2542.95
 10  -1159.377999890     -4.653855068     -0.000010711      0.000031485 2465.15
 11  -1159.377996609     -4.653851788      0.000003281      0.000013707 2437.00
 12  -1159.377996237     -4.653851415      0.000000373      0.000006926 2344.59
               --- The Coupled-Cluster iterations have converged ---

----------------------
COUPLED CLUSTER ENERGY
----------------------

E(0)                                       ...  -1154.711166188
E(CORR)(strong-pairs)                      ...     -4.653851415
E(CORR)(weak-pairs)                        ...     -0.012978634
E(CORR)(corrected)                         ...     -4.666830049
E(TOT)                                     ...  -1159.377996237
Singles Norm <S|S>**1/2                    ...      0.160614475  
T1 diagnostic                              ...      0.014196448  

------------------
LARGEST AMPLITUDES
------------------
  67-> 87  67-> 87       0.071908
  44-> 87  44-> 87       0.038917
  61-> 87  61-> 87       0.038445
  55-> 90  55-> 90       0.038246
  71-> 87  71-> 87       0.037125
  72-> 87  72-> 87       0.036954
  46-> 89  46-> 89       0.036777
  50-> 87  50-> 87       0.036640
  65-> 88  65-> 88       0.035956
  41-> 87  41-> 87       0.035517
  73-> 91  73-> 91       0.034423
  78-> 87  78-> 87       0.034317
  56-> 87  56-> 87       0.034307
  67-> 88  67-> 88       0.033872
  43-> 87  43-> 87       0.033327
  62-> 87  62-> 87       0.033197


-------------------------------------------
DLPNO BASED TRIPLES CORRECTION
-------------------------------------------

Singles multiplier          ...  1.000000
TCutTNO                     ... 1.000e-09
TCutMP2Pairs                ... 1.000e-06
TCutDOStrong                ... 1.000e-02
TCutMKNStrong               ... 1.000e-02
TCutDOWeak                  ... 2.000e-02
TCutMKNWeak                 ... 1.000e-01

Fragment selection                          .... not used
Fock matrix occ-virt block is zero --> Setting DT_in_Triples to false.
Number of Triples that are to be computed   ...     24760

 . . . . . . . . .
10% done               (   6842.929 sec)
 . . . . . . . . .
20% done  
30% done               (   9860.359 sec)
 . . . . . . . . .
40% done  
50% done  
60% done  
70% done               (  15722.636 sec)
 . . . . . . . . .
80% done  
90% done               (   6703.364 sec)
Triples timings:
Total time for T0               ... 43726.242 sec
Total time for Iterative (T)    ...     0.000 sec
Total time of overall (T)       ... 46141.988 sec

Triples List generation         ...     0.000 sec
TNO generation                  ...  4596.229 sec
Pair density generation         ...     0.069 sec
Look up tables                  ...     0.000 sec
Generating 3-index integrals    ... 32887.334 sec
  Make 4-ind.int. from 3-ind.int...   371.722 sec
  Projecting amplitudes (D + S) ...  5596.937 sec
  Downprojecting integrals      ...     0.015 sec
  Energy contr. (sum over a,b,c)...    18.899 sec
Fitting ET(->0)                 ...     0.000 sec

Everything after 3-index        ...  6241.953 sec

Timing details:
 TNO integrals                  ... 33245.012 sec
   Reading 3-index integrals    ...   930.550 sec
   Sorting integrals            ...  2385.822 sec
       Sorting integrals 1      ...     0.018 sec
       Sorting integrals 2      ...  2349.153 sec
       Sorting integrals 3      ...     8.043 sec
       Sorting integrals 4      ...     0.852 sec
       Sorting integrals 5      ...     8.788 sec
       Sorting integrals 6      ...    18.968 sec
   Calculating local VM**-1/2   ...    30.990 sec
   Orthogonal. integrals        ...    45.241 sec
   Multipl. 3-index integrals   ... 29852.409 sec
   All concerning IRIab (w/TNO) ...   265.037 sec

 Calculate W0/W1                ...   254.291 sec
 W 3-ext contribution           ...   165.326 sec
 W 3-int contribution           ...    68.484 sec
 Sorting W                      ...    17.670 sec

 V exchange contribution        ...     5.010 sec

 Timings for Triples without generation
     of 3-index integrals       ...  6241.932 sec
       0 weak pairs             ...  4426.564 sec
       1 weak pair              ...  1815.369 sec
       2 weak pairs             ...     0.000 sec
       3 weak pairs             ...     0.000 sec
  Extra time for extrapolation  ...     0.000 sec

Number of Triples   (0, 1, 2, 3 weak pairs; overall):  15087    9673       0       0  ( 24760)
Number of Atoms     (0, 1, 2, 3 weak pairs; overall):   27.4    25.8     0.0     0.0  (    43)
Number of PAOs      (0, 1, 2, 3 weak pairs; overall): 1239.9  1176.2     0.0     0.0  (  1865)
Number of AuxFcns   (0, 1, 2, 3 weak pairs; overall):  947.0   631.3     0.0     0.0  (  4136)
Number of TNOs      (0, 1, 2, 3 weak pairs         ):  103.0    57.0     0.0     0.0
Aver. Number of NTNO, Atoms, PAOs, AuxFcns / Triples:  24760    85.0    26.8  1215.0   823.7

Triples Correction (T)                     ...     -0.219538204
Final correlation energy                   ...     -4.886368253
E(CCSD)                                    ...  -1159.377996237
E(CCSD(T))                                 ...  -1159.597534441



--------------------------------------------------------------------------------
                                    TIMINGS
--------------------------------------------------------------------------------


Total execution time                   ...    95540.928 sec

Localization of occupied MO's          ...       45.601 sec (  0.0%)
Fock Matrix Formation                  ...      398.872 sec (  0.4%)
Global overlap, Fock, MKN matrices     ...       15.775 sec (  0.0%)
Differential overlap integrals         ...        5.488 sec (  0.0%)
Organizing maps                        ...        0.667 sec (  0.0%)
RI 3-index integral generations        ...      558.385 sec (  0.6%)
RI-PNO integral transformation         ...    11281.230 sec ( 11.8%)
Initial Guess                          ...     3704.876 sec (  3.9%)
DIIS Solver                            ...       89.368 sec (  0.1%)
State Vector Update                    ...        0.310 sec (  0.0%)
Sigma-vector construction              ...    33361.251 sec ( 34.9%)
  <0|H|D>                              ...        0.002 sec (  0.0% of sigma)
  <D|H|D>(0-ext)                       ...     7937.412 sec ( 23.8% of sigma)
  <D|H|D>(2-ext Fock)                  ...        2.513 sec (  0.0% of sigma)
  <D|H|D>(2-ext)                       ...     2710.853 sec (  8.1% of sigma)
  <D|H|D>(4-ext)                       ...      139.506 sec (  0.4% of sigma)
  <D|H|D>(4-ext-corr)                  ...      753.135 sec (  2.3% of sigma)
  CCSD doubles correction              ...      495.705 sec (  1.5% of sigma)
  <S|H|S>                              ...      421.855 sec (  1.3% of sigma)
  <S|H|D>(1-ext)                       ...       27.279 sec (  0.1% of sigma)
  <D|H|S>(1-ext)                       ...        2.224 sec (  0.0% of sigma)
  <S|H|D>(3-ext)                       ...       20.101 sec (  0.1% of sigma)
  CCSD singles correction              ...        0.003 sec (  0.0% of sigma)
  Fock-dressing                        ...     9493.700 sec ( 28.5% of sigma)
  Singles amplitudes                   ...      312.658 sec (  0.9% of sigma)
  (ik|jl)-dressing                     ...     9307.161 sec ( 27.9% of sigma)
  (ij|ab),(ia|jb)-dressing             ...     1728.842 sec (  5.2% of sigma)
  Pair energies                        ...        0.106 sec (  0.0% of sigma)
Total Time for computing (T)           ...    46142.108 sec ( 48.3% of ALL)


Maximum memory used throughout the entire MDCI-calculation: 10095.5 MB

-------------------------   --------------------
FINAL SINGLE POINT ENERGY     -1159.597534440827
-------------------------   --------------------


                            ***************************************
                            *     ORCA property calculations      *
                            ***************************************


  WARNING: The energy has been calculated at the MDCI level but the densities
           used in the property calculations are still SCF densities
           MDCI response densities have not been calculated 
           use %mdci Density linearized end
           or  %mdci Density unrelaxed end
           or  %mdci Density orbopt end

                                    ---------------------
                                    Active property flags
                                    ---------------------
   (+) Dipole Moment


------------------------------------------------------------------------------
                       ORCA ELECTRIC PROPERTIES CALCULATION
------------------------------------------------------------------------------

Dipole Moment Calculation                       ... on
Quadrupole Moment Calculation                   ... off
Polarizability Calculation                      ... off
GBWName                                         ... input.gbw
Electron density                                ... input.scfp
The origin for moment calculation is the CENTER OF MASS  = (20.304146, 17.782105 17.220327)

-------------
DIPOLE MOMENT
-------------
                                X             Y             Z
Electronic contribution:     22.30526      -8.85709      -0.09613
Nuclear contribution   :    -31.55377      12.22703       5.14731
                        -----------------------------------------
Total Dipole Moment    :     -9.24850       3.36994       5.05119
                        -----------------------------------------
Magnitude (a.u.)       :     11.06372
Magnitude (Debye)      :     28.12173



--------------------
Rotational spectrum 
--------------------
 
Rotational constants in cm-1:     0.015909     0.005158     0.004890 
Rotational constants in MHz :   476.936663   154.618959   146.610320 

 Dipole components along the rotational axes: 
x,y,z [a.u.] :    10.142556     3.996229     1.887997 
x,y,z [Debye]:    25.780328    10.157607     4.798907 

 

Timings for individual modules:

Sum of individual times         ...    98808.485 sec (=1646.808 min)
GTO integral calculation        ...       12.388 sec (=   0.206 min)   0.0 %
SCF iterations                  ...     3247.146 sec (=  54.119 min)   3.3 %
MDCI module                     ...    95548.951 sec (=1592.483 min)  96.7 %
                             ****ORCA TERMINATED NORMALLY****
TOTAL RUN TIME: 1 days 3 hours 26 minutes 56 seconds 495 msec
