Loading orca/5.0.3
  Loading requirement: gcc-runtime/11.3.1-gcc-11.3.1-jw6fhud
    numactl/2.0.14-gcc-11.3.1-tqvsbcd openssh/8.7p1-gcc-11.3.1-ddo4kmk
    libiconv/1.17-gcc-11.3.1-h3jdn2x xz/5.4.1-gcc-11.3.1-y32p7p3
    zlib/1.2.13-gcc-11.3.1-dwcx77k libxml2/2.10.3-gcc-11.3.1-m4mk5ab
    cuda/11.8.0-gcc-11.3.1-i5witig libpciaccess/0.17-gcc-11.3.1-qksiqer
    ncurses/6.4-gcc-11.3.1-afnu276 hwloc/2.9.1-gcc-11.3.1-qedjm66
    openssl/3.1.2-gcc-11.3.1-mgoa6lt libevent/2.1.12-gcc-11.3.1-bpr3m74
    pmix/4.2.2-gcc-11.3.1-du4y5e7 slurm/22.05.6-gcc-11.3.1-atym2np
    libnl/3.3.0-gcc-11.3.1-gh3muw7 rdma-core/41.0-gcc-11.3.1-isp54jw
    ucx/1.14.1-gcc-11.3.1-o3wj4kz openmpi/4.1.2-gcc-11.3.1-fs7u3kb

                                 *****************
                                 * O   R   C   A *
                                 *****************

                                            #,                                       
                                            ###                                      
                                            ####                                     
                                            #####                                    
                                            ######                                   
                                           ########,                                 
                                     ,,################,,,,,                         
                               ,,#################################,,                 
                          ,,##########################################,,             
                       ,#########################################, ''#####,          
                    ,#############################################,,   '####,        
                  ,##################################################,,,,####,       
                ,###########''''           ''''###############################       
              ,#####''   ,,,,##########,,,,          '''####'''          '####       
            ,##' ,,,,###########################,,,                        '##       
           ' ,,###''''                  '''############,,,                           
         ,,##''                                '''############,,,,        ,,,,,,###''
      ,#''                                            '''#######################'''  
     '                                                          ''''####''''         
             ,#######,   #######,   ,#######,      ##                                
            ,#'     '#,  ##    ##  ,#'     '#,    #''#        ######   ,####,        
            ##       ##  ##   ,#'  ##            #'  '#       #        #'  '#        
            ##       ##  #######   ##           ,######,      #####,   #    #        
            '#,     ,#'  ##    ##  '#,     ,#' ,#      #,         ##   #,  ,#        
             '#######'   ##     ##  '#######'  #'      '#     #####' # '####'        



                  #######################################################
                  #                        -***-                        #
                  #          Department of theory and spectroscopy      #
                  #    Directorship and core code : Frank Neese         #
                  #        Max Planck Institute fuer Kohlenforschung    #
                  #                Kaiser Wilhelm Platz 1               #
                  #                 D-45470 Muelheim/Ruhr               #
                  #                      Germany                        #
                  #                                                     #
                  #                  All rights reserved                #
                  #                        -***-                        #
                  #######################################################


                         Program Version 5.0.3 -  RELEASE  -


 With contributions from (in alphabetic order):
   Daniel Aravena         : Magnetic Suceptibility
   Michael Atanasov       : Ab Initio Ligand Field Theory (pilot matlab implementation)
   Alexander A. Auer      : GIAO ZORA, VPT2 properties, NMR spectrum
   Ute Becker             : Parallelization
   Giovanni Bistoni       : ED, misc. LED, open-shell LED, HFLD
   Martin Brehm           : Molecular dynamics
   Dmytro Bykov           : SCF Hessian
   Vijay G. Chilkuri      : MRCI spin determinant printing, contributions to CSF-ICE
   Dipayan Datta          : RHF DLPNO-CCSD density
   Achintya Kumar Dutta   : EOM-CC, STEOM-CC
   Dmitry Ganyushin       : Spin-Orbit,Spin-Spin,Magnetic field MRCI
   Miquel Garcia          : C-PCM and meta-GGA Hessian, CC/C-PCM, Gaussian charge scheme
   Yang Guo               : DLPNO-NEVPT2, F12-NEVPT2, CIM, IAO-localization
   Andreas Hansen         : Spin unrestricted coupled pair/coupled cluster methods
   Benjamin Helmich-Paris : MC-RPA, TRAH-SCF, COSX integrals
   Lee Huntington         : MR-EOM, pCC
   Robert Izsak           : Overlap fitted RIJCOSX, COSX-SCS-MP3, EOM
   Marcus Kettner         : VPT2
   Christian Kollmar      : KDIIS, OOCD, Brueckner-CCSD(T), CCSD density, CASPT2, CASPT2-K
   Simone Kossmann        : Meta GGA functionals, TD-DFT gradient, OOMP2, MP2 Hessian
   Martin Krupicka        : Initial AUTO-CI
   Lucas Lang             : DCDCAS
   Marvin Lechner         : AUTO-CI (C++ implementation), FIC-MRCC
   Dagmar Lenk            : GEPOL surface, SMD
   Dimitrios Liakos       : Extrapolation schemes; Compound Job, initial MDCI parallelization
   Dimitrios Manganas     : Further ROCIS development; embedding schemes
   Dimitrios Pantazis     : SARC Basis sets
   Anastasios Papadopoulos: AUTO-CI, single reference methods and gradients
   Taras Petrenko         : DFT Hessian,TD-DFT gradient, ASA, ECA, R-Raman, ABS, FL, XAS/XES, NRVS
   Peter Pinski           : DLPNO-MP2, DLPNO-MP2 Gradient
   Christoph Reimann      : Effective Core Potentials
   Marius Retegan         : Local ZFS, SOC
   Christoph Riplinger    : Optimizer, TS searches, QM/MM, DLPNO-CCSD(T), (RO)-DLPNO pert. Triples
   Tobias Risthaus        : Range-separated hybrids, TD-DFT gradient, RPA, STAB
   Michael Roemelt        : Original ROCIS implementation
   Masaaki Saitow         : Open-shell DLPNO-CCSD energy and density
   Barbara Sandhoefer     : DKH picture change effects
   Avijit Sen             : IP-ROCIS
   Kantharuban Sivalingam : CASSCF convergence, NEVPT2, FIC-MRCI
   Bernardo de Souza      : ESD, SOC TD-DFT
   Georgi Stoychev        : AutoAux, RI-MP2 NMR, DLPNO-MP2 response
   Willem Van den Heuvel  : Paramagnetic NMR
   Boris Wezisla          : Elementary symmetry handling
   Frank Wennmohs         : Technical directorship


 We gratefully acknowledge several colleagues who have allowed us to
 interface, adapt or use parts of their codes:
   Stefan Grimme, W. Hujo, H. Kruse, P. Pracht,  : VdW corrections, initial TS optimization,
                  C. Bannwarth, S. Ehlert          DFT functionals, gCP, sTDA/sTD-DF
   Ed Valeev, F. Pavosevic, A. Kumar             : LibInt (2-el integral package), F12 methods
   Garnet Chan, S. Sharma, J. Yang, R. Olivares  : DMRG
   Ulf Ekstrom                                   : XCFun DFT Library
   Mihaly Kallay                                 : mrcc  (arbitrary order and MRCC methods)
   Jiri Pittner, Ondrej Demel                    : Mk-CCSD
   Frank Weinhold                                : gennbo (NPA and NBO analysis)
   Christopher J. Cramer and Donald G. Truhlar   : smd solvation model
   Lars Goerigk                                  : TD-DFT with DH, B97 family of functionals
   V. Asgeirsson, H. Jonsson                     : NEB implementation
   FAccTs GmbH                                   : IRC, NEB, NEB-TS, DLPNO-Multilevel, CI-OPT
                                                   MM, QMMM, 2- and 3-layer-ONIOM, Crystal-QMMM,
                                                   LR-CPCM, SF, NACMEs, symmetry and pop. for TD-DFT,
                                                   nearIR, NL-DFT gradient (VV10), updates on ESD,
                                                   ML-optimized integration grids
   S Lehtola, MJT Oliveira, MAL Marques          : LibXC Library
   Liviu Ungur et al                             : ANISO software


 Your calculation uses the libint2 library for the computation of 2-el integrals
 For citations please refer to: http://libint.valeyev.net

 Your ORCA version has been built with support for libXC version: 5.1.0
 For citations please refer to: https://tddft.org/programs/libxc/

 This ORCA versions uses:
   CBLAS   interface :  Fast vector & matrix operations
   LAPACKE interface :  Fast linear algebra routines
   SCALAPACK package :  Parallel linear algebra routines
   Shared memory     :  Shared parallel matrices
   BLAS/LAPACK       :  OpenBLAS 0.3.15  USE64BITINT DYNAMIC_ARCH NO_AFFINITY Prescott SINGLE_THREADED
        Core in use  :  Prescott
   Copyright (c) 2011-2014, The OpenBLAS Project


================================================================================

----- Orbital basis set information -----
Your calculation utilizes the basis: cc-pVQZ 
       H, B-Ne : Obtained from the ccRepo (grant-hill.group.shef.ac.uk/ccrepo) Feb. 2017
                 T. H. Dunning, Jr., J. Chem. Phys. 90, 1007 (1989)
            He : Obtained from the ccRepo (grant-hill.group.shef.ac.uk/ccrepo) Feb. 2017
                 D. E. Woon, T. H. Dunning, Jr., J. Chem. Phys. 100, 2975 (1994)
  Li-Be, Na-Mg : Obtained from the ccRepo (grant-hill.group.shef.ac.uk/ccrepo) Feb. 2017
                 B. P. Prascher, D. E. Woon, K. A. Peterson, T. H. Dunning, Jr., A. K. Wilson, Theor. Chem. Acc. 128, 69 (2011)
         Al-Ar : Obtained from the ccRepo (grant-hill.group.shef.ac.uk/ccrepo) Feb. 2017
                 D. E. Woon, T. H. Dunning, Jr., J. Chem. Phys. 98, 1358 (1993)
            Ca : Obtained from the Peterson Research Group Website (tyr0.chem.wsu.edu/~kipeters) Feb. 2017
                 J. Koput, K. A. Peterson, J. Phys. Chem. 106, 9595 (2002)
         Sc-Zn : Obtained from the ccRepo (grant-hill.group.shef.ac.uk/ccrepo) Feb. 2017
                 N. B. Balabanov, K. A. Peterson, J. Chem. Phys. 123, 064107 (2005)
                 N. B. Balabanov, K. A. Peterson, J. Chem. Phys. 125, 074110 (2006)
         Ga-Kr : Obtained from the ccRepo (grant-hill.group.shef.ac.uk/ccrepo) Feb. 2017
                 A. K. Wilson, D. E. Woon, K. A. Peterson, T. H. Dunning, Jr., J. Chem. Phys. 110, 7667 (1999)

----- AuxC basis set information -----
Your calculation utilizes the auxiliary basis: cc-pVQZ/C 
  Obtained from the EMSL Basis Set Exchange (bse.pnl.gov) Feb. 2017
  H-He, B-F, Al-Ar, Ga-Kr : F. Weigend, A. Kohn, C. Hattig, J. Chem. Phys. 116, 3175 (2002)
             Li-Be, Na-Mg : C. Haettig, Phys. Chem. Chem. Phys. 7, 59 (2005)
                       Ne : C. Haettig, Phys. Chem. Chem. Phys. 7, 59 (2005)
                            F. Weigend, A. Kohn, C. Hattig, J. Chem. Phys. 116, 3175 (2002)
                    Sc-Zn : D. H. Bross, J. G. Hill, H. J. Werner, K. A. Peterson, J. Chem. Phys. 139, 094302 (2013)

================================================================================
                                        WARNINGS
                       Please study these warnings very carefully!
================================================================================


WARNING: Post HF methods need fully converged wavefunctions
  ===> : Setting SCFConvForced true
         You can overwrite this default with %scf ConvForced false 


WARNING: MDCI localization with Augmented Hessian Foster-Boys
  ===> : Switching off randomization!

INFO   : the flag for use of the SHARK integral package has been found!

================================================================================
                                       INPUT FILE
================================================================================
NAME = input
|  1> ! DLPNO-CCSD(T) cc-pVQZ cc-pVQZ/C TIGHTPNO TIGHTSCF
|  2> %maxcore 10000
|  3> %pal
|  4> nprocs 16
|  5> end
|  6> *xyz -1 1
|  7> H 4.850745564798 12.929940336313 7.689246415411
|  8> C 5.346434000000 11.988230000000 7.873297000000
|  9> H 5.818987000000 11.687284000000 6.932920000000
| 10> H 4.604976000000 11.216834000000 8.099032000000
| 11> C 6.387642000000 11.928107000000 8.969981000000
| 12> H 5.903695000000 12.002622000000 9.947053000000
| 13> H 7.075533000000 12.768799000000 8.881997000000
| 14> C 7.142859000000 10.602862000000 8.882098000000
| 15> H 7.892840000000 10.645354000000 8.096775000000
| 16> H 6.447574000000 9.809648000000 8.614018000000
| 17> N 7.761285000000 10.161433000000 10.123054000000
| 18> H 7.530236000000 9.239443000000 10.491146000000
| 19> C 8.667853000000 10.823099000000 10.823916000000
| 20> N 9.190296000000 11.966110000000 10.352291000000
| 21> H 9.473883000000 11.853423000000 9.370681000000
| 22> H 9.973979000000 12.285689000000 10.898721000000
| 23> N 9.004674000000 10.352349000000 12.014841000000
| 24> H 9.687684000000 10.828461000000 12.590096000000
| 25> H 8.667297000000 9.433544000000 12.270560000000
| 26> C 13.497471000000 10.124834000000 8.990388000000
| 27> H 14.002736000000 9.965480000000 9.929403000000
| 28> H 14.103335000000 10.391811000000 8.142497000000
| 29> C 12.146236000000 10.352758000000 8.999894000000
| 30> C 11.431561000000 10.727023000000 7.693401000000
| 31> O 12.053873000000 10.681623000000 6.625762000000
| 32> O 10.210801000000 11.057931000000 7.817585000000
| 33> O 11.439724000000 10.141477000000 10.040080000000
| 34> C 11.183713000000 8.059896000000 10.332128000000
| 35> H 10.776000000000 8.181377000000 11.324220000000
| 36> C 12.515008000000 7.773270000000 10.179404000000
| 37> H 13.205526000000 7.874471000000 10.994819000000
| 38> C 13.051445000000 7.668223000000 8.919703000000
| 39> C 12.151584000000 7.437936000000 7.795097000000
| 40> H 12.603638000000 7.236237000000 6.835244000000
| 41> C 10.833019000000 7.408642000000 7.963959000000
| 42> H 10.181591000000 7.156225000000 7.136612000000
| 43> C 10.178662000000 7.786800000000 9.248950000000
| 44> H 9.653735000000 8.726833000000 9.065413000000
| 45> O 9.248094000000 6.790583000000 9.640450000000
| 46> H 8.710204000000 7.122535000000 10.409350000000
| 47> C 14.528537000000 7.337625000000 8.746468000000
| 48> O 15.201730000000 7.159739000000 9.781723000000
| 49> O 14.944198000000 7.268365000000 7.567336000000
| 50> *
| 51> 
| 52>                          ****END OF INPUT****
================================================================================

                       ****************************
                       * Single Point Calculation *
                       ****************************

---------------------------------
CARTESIAN COORDINATES (ANGSTROEM)
---------------------------------
  H      4.850746   12.929940    7.689246
  C      5.346434   11.988230    7.873297
  H      5.818987   11.687284    6.932920
  H      4.604976   11.216834    8.099032
  C      6.387642   11.928107    8.969981
  H      5.903695   12.002622    9.947053
  H      7.075533   12.768799    8.881997
  C      7.142859   10.602862    8.882098
  H      7.892840   10.645354    8.096775
  H      6.447574    9.809648    8.614018
  N      7.761285   10.161433   10.123054
  H      7.530236    9.239443   10.491146
  C      8.667853   10.823099   10.823916
  N      9.190296   11.966110   10.352291
  H      9.473883   11.853423    9.370681
  H      9.973979   12.285689   10.898721
  N      9.004674   10.352349   12.014841
  H      9.687684   10.828461   12.590096
  H      8.667297    9.433544   12.270560
  C     13.497471   10.124834    8.990388
  H     14.002736    9.965480    9.929403
  H     14.103335   10.391811    8.142497
  C     12.146236   10.352758    8.999894
  C     11.431561   10.727023    7.693401
  O     12.053873   10.681623    6.625762
  O     10.210801   11.057931    7.817585
  O     11.439724   10.141477   10.040080
  C     11.183713    8.059896   10.332128
  H     10.776000    8.181377   11.324220
  C     12.515008    7.773270   10.179404
  H     13.205526    7.874471   10.994819
  C     13.051445    7.668223    8.919703
  C     12.151584    7.437936    7.795097
  H     12.603638    7.236237    6.835244
  C     10.833019    7.408642    7.963959
  H     10.181591    7.156225    7.136612
  C     10.178662    7.786800    9.248950
  H      9.653735    8.726833    9.065413
  O      9.248094    6.790583    9.640450
  H      8.710204    7.122535   10.409350
  C     14.528537    7.337625    8.746468
  O     15.201730    7.159739    9.781723
  O     14.944198    7.268365    7.567336

----------------------------
CARTESIAN COORDINATES (A.U.)
----------------------------
  NO LB      ZA    FRAG     MASS         X           Y           Z
   0 H     1.0000    0     1.008    9.166581   24.434046   14.530570
   1 C     6.0000    0    12.011   10.103296   22.654472   14.878375
   2 H     1.0000    0     1.008   10.996292   22.085766   13.101320
   3 H     1.0000    0     1.008    8.702143   21.196744   15.304952
   4 C     6.0000    0    12.011   12.070894   22.540856   16.950808
   5 H     1.0000    0     1.008   11.156367   22.681668   18.797206
   6 H     1.0000    0     1.008   13.370820   24.129533   16.784542
   7 C     6.0000    0    12.011   13.498047   20.036505   16.784733
   8 H     1.0000    0     1.008   14.915306   20.116804   15.300687
   9 H     1.0000    0     1.008   12.184149   18.537548   16.278135
  10 N     7.0000    0    14.007   14.666703   19.202325   19.129800
  11 H     1.0000    0     1.008   14.230084   17.460017   19.825393
  12 C     6.0000    0    12.011   16.379868   20.452693   20.454237
  13 N     7.0000    0    14.007   17.367143   22.612671   19.562995
  14 H     1.0000    0     1.008   17.903044   22.399723   17.708021
  15 H     1.0000    0     1.008   18.848089   23.216588   20.595598
  16 N     7.0000    0    14.007   17.016368   19.563104   22.704759
  17 H     1.0000    0     1.008   18.307070   20.462826   23.791833
  18 H     1.0000    0     1.008   16.378818   17.826815   23.187998
  19 C     6.0000    0    12.011   25.506524   19.133163   16.989371
  20 H     1.0000    0     1.008   26.461336   18.832028   18.763852
  21 H     1.0000    0     1.008   26.651441   19.637677   15.387089
  22 C     6.0000    0    12.011   22.953060   19.563877   17.007335
  23 C     6.0000    0    12.011   21.602520   20.271136   14.538421
  24 O     8.0000    0    15.999   22.778519   20.185342   12.520876
  25 O     8.0000    0    15.999   19.295617   20.896461   14.773095
  26 O     8.0000    0    15.999   21.617945   19.164614   18.973002
  27 C     6.0000    0    12.011   21.134155   15.230996   19.524892
  28 H     1.0000    0     1.008   20.363689   15.460562   21.399674
  29 C     6.0000    0    12.011   23.649938   14.689351   19.236286
  30 H     1.0000    0     1.008   24.954828   14.880594   20.777197
  31 C     6.0000    0    12.011   24.663657   14.490841   16.855796
  32 C     6.0000    0    12.011   22.963166   14.055662   14.730599
  33 H     1.0000    0     1.008   23.817424   13.674506   12.916739
  34 C     6.0000    0    12.011   20.471439   14.000304   15.049701
  35 H     1.0000    0     1.008   19.240419   13.523305   13.486242
  36 C     6.0000    0    12.011   19.234884   14.714919   17.477983
  37 H     1.0000    0     1.008   18.242915   16.491324   17.131148
  38 O     8.0000    0    15.999   17.476365   12.832342   18.217810
  39 H     1.0000    0     1.008   16.459900   13.459641   19.670821
  40 C     6.0000    0    12.011   27.454956   13.866102   16.528429
  41 O     8.0000    0    15.999   28.727106   13.529946   18.484778
  42 O     8.0000    0    15.999   28.240442   13.735219   14.300193

--------------------------------
INTERNAL COORDINATES (ANGSTROEM)
--------------------------------
 H      0   0   0     0.000000000000     0.00000000     0.00000000
 C      1   0   0     1.080000000000     0.00000000     0.00000000
 H      2   1   0     1.094615793260   106.94570974     0.00000000
 H      2   1   3     1.093511794543   109.82057847   245.37689470
 C      2   1   3     1.513421511096   118.28740518   122.51081360
 H      5   2   1     1.092898383757   109.90650169    70.84427073
 H      5   2   1     1.089815695887   110.18831400   312.67602716
 C      5   2   1     1.527858124566   109.44156051   190.80356599
 H      8   5   2     1.086742510788   110.41243184    79.14040225
 H      8   5   2     1.088336605753   109.30307663   321.76837875
 N      8   5   2     1.455088338711   115.09777038   203.80995637
 H     11   8   5     1.019284514238   119.08163390   124.26693356
 C     11   8   5     1.323206324510   126.24293600   301.01328943
 N     13  11   8     1.342330426905   120.42133797   354.19344434
 H     14  13  11     1.027948509721   110.45899642   312.76576245
 H     14  13  11     1.007410306990   112.47742747   189.74667428
 N     13  11   8     1.324143611609   118.22161854   171.82665115
 H     17  13  11     1.011980045094   121.04257781   180.50473216
 H     17  13  11     1.011641277882   117.73628138     9.65364634
 C     15  14  13     4.395668673878   112.22526512   275.31962342
 H     20  15  14     1.078163061770   114.31414771   356.40020676
 H     20  15  14     1.075763474425   119.08567095   210.51256028
 C     20  15  14     1.370356062867    14.39896156   107.56820886
 C     23  20  22     1.535499464311   119.57605315    12.53278015
 O     24  23  20     1.236602773596   119.43432761     7.54969114
 O     24  23  20     1.270896041350   115.30248606   187.13431531
 O     23  20  22     1.275063050089   121.63235330   185.86385370
 C     27  23  20     2.117501623609   110.02305826   286.17942632
 H     28  27  23     1.079460078092    93.54276232   168.59497520
 C     28  27  23     1.370337717892    94.17409600    48.61588994
 H     30  28  27     1.073293237168   121.37514561    83.01256876
 C     30  28  27     1.373188310677   119.85194415   278.96411374
 C     32  30  28     1.458602268244   118.57884279   340.62703722
 H     33  32  30     1.079978280858   117.16204884   187.43653246
 C     33  32  30     1.329656411523   121.15462121     3.98341162
 H     35  33  32     1.082855410238   120.30945744   185.04526162
 C     35  33  32     1.490767730565   122.62623077     8.52501254
 H     37  35  33     1.092197888108   106.52531348   110.51383798
 O     37  35  33     1.418336125082   110.34930149   229.42033946
 H     39  37  35     0.995351692822   109.48371587   189.53950546
 C     32  30  28     1.523517699042   119.97726774   180.53530079
 O     41  32  30     1.247631820398   117.36916186     0.66757266
 O     41  32  30     1.252167436066   116.16229211   180.47684244

---------------------------
INTERNAL COORDINATES (A.U.)
---------------------------
 H      0   0   0     0.000000000000     0.00000000     0.00000000
 C      1   0   0     2.040904224634     0.00000000     0.00000000
 H      2   1   0     2.068524071126   106.94570974     0.00000000
 H      2   1   3     2.066437815899   109.82057847   245.37689470
 C      2   1   3     2.859952181157   118.28740518   122.51081360
 H      5   2   1     2.065278637505   109.90650169    70.84427073
 H      5   2   1     2.059453201675   110.18831400   312.67602716
 C      5   2   1     2.887233426917   109.44156051   190.80356599
 H      8   5   2     2.053645723479   110.41243184    79.14040225
 H      8   5   2     2.056658126394   109.30307663   321.76837875
 N      8   5   2     2.749718460826   115.09777038   203.80995637
 H     11   8   5     1.926168584456   119.08163390   124.26693356
 C     11   8   5     2.500497571997   126.24293600   301.01328943
 N     13  11   8     2.536636888080   120.42133797   354.19344434
 H     14  13  11     1.942541163146   110.45899642   312.76576245
 H     14  13  11     1.903729584701   112.47742747   189.74667428
 N     13  11   8     2.502268787923   118.22161854   171.82665115
 H     17  13  11     1.912365138221   121.04257781   180.50473216
 H     17  13  11     1.911724960967   117.73628138     9.65364634
 C     15  14  13     8.306609969087   112.22526512   275.31962342
 H     20  15  14     2.037432914456   114.31414771   356.40020676
 H     20  15  14     2.032898351538   119.08567095   210.51256028
 C     20  15  14     2.589597664778    14.39896156   107.56820886
 C     23  20  22     2.901673466330   119.57605315    12.53278015
 O     24  23  20     2.336840578544   119.43432761     7.54969114
 O     24  23  20     2.401645462837   115.30248606   187.13431531
 O     23  20  22     2.409519968150   121.63235330   185.86385370
 C     27  23  20     4.001498156754   110.02305826   286.17942632
 H     28  27  23     2.039883920095    93.54276232   168.59497520
 C     28  27  23     2.589562997798    94.17409600    48.61588994
 H     30  28  27     2.028230279637   121.37514561    83.01256876
 C     30  28  27     2.594949837481   119.85194415   278.96411374
 C     32  30  28     2.756358825297   118.57884279   340.62703722
 H     33  32  30     2.040863181406   117.16204884   187.43653246
 C     33  32  30     2.512686469992   121.15462121     3.98341162
 H     35  33  32     2.046300167985   120.30945744   185.04526162
 C     35  33  32     2.817142740055   122.62623077     8.52501254
 H     37  35  33     2.063954892571   106.52531348   110.51383798
 O     37  35  33     2.680266842252   110.34930149   229.42033946
 H     39  37  35     1.880942106369   109.48371587   189.53950546
 C     32  30  28     2.879031211370   119.97726774   180.53530079
 O     41  32  30     2.357682456518   117.36916186     0.66757266
 O     41  32  30     2.366253527980   116.16229211   180.47684244

---------------------
BASIS SET INFORMATION
---------------------
There are 4 groups of distinct atoms

 Group   1 Type H   : 6s3p2d1f contracted to 4s3p2d1f pattern {3111/111/11/1}
 Group   2 Type C   : 21s6p3d2f1g contracted to 5s4p3d2f1g pattern {99111/3111/111/11/1}
 Group   3 Type N   : 21s6p3d2f1g contracted to 5s4p3d2f1g pattern {99111/3111/111/11/1}
 Group   4 Type O   : 21s6p3d2f1g contracted to 5s4p3d2f1g pattern {99111/3111/111/11/1}

Atom   0H    basis set group =>   1
Atom   1C    basis set group =>   2
Atom   2H    basis set group =>   1
Atom   3H    basis set group =>   1
Atom   4C    basis set group =>   2
Atom   5H    basis set group =>   1
Atom   6H    basis set group =>   1
Atom   7C    basis set group =>   2
Atom   8H    basis set group =>   1
Atom   9H    basis set group =>   1
Atom  10N    basis set group =>   3
Atom  11H    basis set group =>   1
Atom  12C    basis set group =>   2
Atom  13N    basis set group =>   3
Atom  14H    basis set group =>   1
Atom  15H    basis set group =>   1
Atom  16N    basis set group =>   3
Atom  17H    basis set group =>   1
Atom  18H    basis set group =>   1
Atom  19C    basis set group =>   2
Atom  20H    basis set group =>   1
Atom  21H    basis set group =>   1
Atom  22C    basis set group =>   2
Atom  23C    basis set group =>   2
Atom  24O    basis set group =>   4
Atom  25O    basis set group =>   4
Atom  26O    basis set group =>   4
Atom  27C    basis set group =>   2
Atom  28H    basis set group =>   1
Atom  29C    basis set group =>   2
Atom  30H    basis set group =>   1
Atom  31C    basis set group =>   2
Atom  32C    basis set group =>   2
Atom  33H    basis set group =>   1
Atom  34C    basis set group =>   2
Atom  35H    basis set group =>   1
Atom  36C    basis set group =>   2
Atom  37H    basis set group =>   1
Atom  38O    basis set group =>   4
Atom  39H    basis set group =>   1
Atom  40C    basis set group =>   2
Atom  41O    basis set group =>   4
Atom  42O    basis set group =>   4
---------------------------------
AUXILIARY/C BASIS SET INFORMATION
---------------------------------
There are 4 groups of distinct atoms

 Group   1 Type H   : 5s4p3d2f1g contracted to 5s4p3d2f1g pattern {11111/1111/111/11/1}
 Group   2 Type C   : 8s7p6d5f3g1h contracted to 8s7p6d5f3g1h pattern {11111111/1111111/111111/11111/111/1}
 Group   3 Type N   : 8s7p6d5f3g1h contracted to 8s7p6d5f3g1h pattern {11111111/1111111/111111/11111/111/1}
 Group   4 Type O   : 8s7p6d5f3g1h contracted to 8s7p6d5f3g1h pattern {11111111/1111111/111111/11111/111/1}

Atom   0H    basis set group =>   1
Atom   1C    basis set group =>   2
Atom   2H    basis set group =>   1
Atom   3H    basis set group =>   1
Atom   4C    basis set group =>   2
Atom   5H    basis set group =>   1
Atom   6H    basis set group =>   1
Atom   7C    basis set group =>   2
Atom   8H    basis set group =>   1
Atom   9H    basis set group =>   1
Atom  10N    basis set group =>   3
Atom  11H    basis set group =>   1
Atom  12C    basis set group =>   2
Atom  13N    basis set group =>   3
Atom  14H    basis set group =>   1
Atom  15H    basis set group =>   1
Atom  16N    basis set group =>   3
Atom  17H    basis set group =>   1
Atom  18H    basis set group =>   1
Atom  19C    basis set group =>   2
Atom  20H    basis set group =>   1
Atom  21H    basis set group =>   1
Atom  22C    basis set group =>   2
Atom  23C    basis set group =>   2
Atom  24O    basis set group =>   4
Atom  25O    basis set group =>   4
Atom  26O    basis set group =>   4
Atom  27C    basis set group =>   2
Atom  28H    basis set group =>   1
Atom  29C    basis set group =>   2
Atom  30H    basis set group =>   1
Atom  31C    basis set group =>   2
Atom  32C    basis set group =>   2
Atom  33H    basis set group =>   1
Atom  34C    basis set group =>   2
Atom  35H    basis set group =>   1
Atom  36C    basis set group =>   2
Atom  37H    basis set group =>   1
Atom  38O    basis set group =>   4
Atom  39H    basis set group =>   1
Atom  40C    basis set group =>   2
Atom  41O    basis set group =>   4
Atom  42O    basis set group =>   4


           ************************************************************
           *        Program running with 16 parallel MPI-processes    *
           *              working on a common directory               *
           ************************************************************
------------------------------------------------------------------------------
                           ORCA GTO INTEGRAL CALCULATION
------------------------------------------------------------------------------
------------------------------------------------------------------------------
                   ___                                                        
                  /   \      - P O W E R E D   B Y -                         
                 /     \                                                     
                 |  |  |   _    _      __       _____    __    __             
                 |  |  |  | |  | |    /  \     |  _  \  |  |  /  |          
                  \  \/   | |  | |   /    \    | | | |  |  | /  /          
                 / \  \   | |__| |  /  /\  \   | |_| |  |  |/  /          
                |  |  |   |  __  | /  /__\  \  |    /   |      \           
                |  |  |   | |  | | |   __   |  |    \   |  |\   \          
                \     /   | |  | | |  |  |  |  | |\  \  |  | \   \       
                 \___/    |_|  |_| |__|  |__|  |_| \__\ |__|  \__/        
                                                                              
                      - O R C A' S   B I G   F R I E N D -                    
                                      &                                       
                       - I N T E G R A L  F E E D E R -                       
                                                                              
 v1 FN, 2020, v2 2021                                                         
------------------------------------------------------------------------------


Reading SHARK input file input.SHARKINP.tmp ... ok
----------------------
SHARK INTEGRAL PACKAGE
----------------------

Number of atoms                             ...     43
Number of basis functions                   ...   2026
Number of shells                            ...    706
Maximum angular momentum                    ...      4
Integral batch strategy                     ... SHARK/LIBINT Hybrid
RI-J (if used) integral strategy            ... SPLIT-RIJ (Revised 2003 algorithm where possible)
Printlevel                                  ...      1
Contraction scheme used                     ... PARTIAL GENERAL contraction
Coulomb Range Separation                    ... NOT USED
Exchange Range Separation                   ... NOT USED
Finite Nucleus Model                        ... NOT USED
Auxiliary Coulomb fitting basis             ... NOT available
Auxiliary J/K fitting basis                 ... NOT available
Auxiliary Correlation fitting basis         ... AVAILABLE
   # of basis functions in Aux-C            ...   4136
   # of shells in Aux-C                     ...    990
   Maximum angular momentum in Aux-C        ...      5
Auxiliary 'external' fitting basis          ... NOT available
Integral threshold                          ...     2.500000e-11
Primitive cut-off                           ...     2.500000e-12
Primitive pair pre-selection threshold      ...     2.500000e-12

Calculating pre-screening integrals         ... done (  0.4 sec) Dimension = 706
Calculating pre-screening integrals (ORCA)  ... done (  3.8 sec) Dimension = 545
Organizing shell pair data                  ... done (  2.6 sec)
Shell pair information
Total number of shell pairs                 ...    249571
Shell pairs after pre-screening             ...    121901
Total number of primitive shell pairs       ...    314157
Primitive shell pairs kept                  ...    138078
          la=0 lb=0:  25304 shell pairs
          la=1 lb=0:  28703 shell pairs
          la=1 lb=1:   7634 shell pairs
          la=2 lb=0:  18086 shell pairs
          la=2 lb=1:  10167 shell pairs
          la=2 lb=2:   3392 shell pairs
          la=3 lb=0:  10027 shell pairs
          la=3 lb=1:   5859 shell pairs
          la=3 lb=2:   3836 shell pairs
          la=3 lb=3:   1118 shell pairs
          la=4 lb=0:   3480 shell pairs
          la=4 lb=1:   2039 shell pairs
          la=4 lb=2:   1347 shell pairs
          la=4 lb=3:    767 shell pairs
          la=4 lb=4:    142 shell pairs

Calculating one electron integrals          ... done (  0.3 sec)
Calculating RI/C V-Matrix + Cholesky decomp.... done (  1.0 sec)
Calculating Nuclear repulsion               ... done (  0.0 sec) ENN=   2105.412970535294 Eh

SHARK setup successfully completed in  31.9 seconds

Maximum memory used throughout the entire GTOINT-calculation: 180.9 MB


           ************************************************************
           *        Program running with 16 parallel MPI-processes    *
           *              working on a common directory               *
           ************************************************************
-------------------------------------------------------------------------------
                                 ORCA SCF
-------------------------------------------------------------------------------

------------
SCF SETTINGS
------------
Hamiltonian:
 Ab initio Hamiltonian  Method          .... Hartree-Fock(GTOs)


General Settings:
 Integral files         IntName         .... input
 Hartree-Fock type      HFTyp           .... RHF
 Total Charge           Charge          ....   -1
 Multiplicity           Mult            ....    1
 Number of Electrons    NEL             ....  174
 Basis Dimension        Dim             .... 1865
 Nuclear Repulsion      ENuc            ....   2105.4129705353 Eh

Convergence Acceleration:
 DIIS                   CNVDIIS         .... on
   Start iteration      DIISMaxIt       ....    12
   Startup error        DIISStart       ....  0.200000
   # of expansion vecs  DIISMaxEq       ....     5
   Bias factor          DIISBfac        ....   1.050
   Max. coefficient     DIISMaxC        ....  10.000
 Trust-Rad. Augm. Hess. CNVTRAH         .... auto
   Auto Start mean grad. ratio tolernc. ....  1.125000
   Auto Start start iteration           ....    20
   Auto Start num. interpolation iter.  ....    10
   Max. Number of Micro iterations      ....    16
   Max. Number of Macro iterations      .... Maxiter - #DIIS iter
   Number of Davidson start vectors     ....     2
   Converg. threshold I  (grad. norm)   ....   1.000e-05
   Converg. threshold II (energy diff.) ....   1.000e-08
   Grad. Scal. Fac. for Micro threshold ....   0.100
   Minimum threshold for Micro iter.    ....   0.010
   NR start threshold (gradient norm)   ....   0.001
   Initial trust radius                 ....   0.400
   Minimum AH scaling param. (alpha)    ....   1.000
   Maximum AH scaling param. (alpha)    .... 1000.000
   Orbital update algorithm             .... Taylor
   White noise on init. David. guess    .... on
   Maximum white noise                  ....   0.010
   Quad. conv. algorithm                .... NR
 SOSCF                  CNVSOSCF        .... on
   Start iteration      SOSCFMaxIt      ....   150
   Startup grad/error   SOSCFStart      ....  0.003300
 Level Shifting         CNVShift        .... on
   Level shift para.    LevelShift      ....    0.2500
   Turn off err/grad.   ShiftErr        ....    0.0010
 Zerner damping         CNVZerner       .... off
 Static damping         CNVDamp         .... on
   Fraction old density DampFac         ....    0.7000
   Max. Damping (<1)    DampMax         ....    0.9800
   Min. Damping (>=0)   DampMin         ....    0.0000
   Turn off err/grad.   DampErr         ....    0.1000
 Fernandez-Rico         CNVRico         .... off

SCF Procedure:
 Maximum # iterations   MaxIter         ....   125
 SCF integral mode      SCFMode         .... Direct
   Integral package                     .... SHARK and LIBINT hybrid scheme
 Reset frequency        DirectResetFreq ....    20
 Integral Threshold     Thresh          ....  2.500e-11 Eh
 Primitive CutOff       TCut            ....  2.500e-12 Eh

Convergence Tolerance:
 Convergence Check Mode ConvCheckMode   .... Total+1el-Energy
 Convergence forced     ConvForced      .... 1
 Energy Change          TolE            ....  1.000e-08 Eh
 1-El. energy change                    ....  1.000e-05 Eh
 Orbital Gradient       TolG            ....  1.000e-05
 Orbital Rotation angle TolX            ....  1.000e-05
 DIIS Error             TolErr          ....  5.000e-07


Diagonalization of the overlap matrix:
Smallest eigenvalue                        ... 6.120e-06
Time for diagonalization                   ...    0.457 sec
Threshold for overlap eigenvalues          ... 1.000e-08
Number of eigenvalues below threshold      ... 0
Time for construction of square roots      ...    3.196 sec
Total time needed                          ...    3.669 sec

Time for model grid setup =    2.568 sec

------------------------------
INITIAL GUESS: MODEL POTENTIAL
------------------------------
Loading Hartree-Fock densities                     ... done
Calculating cut-offs                               ... done
Initializing the effective Hamiltonian             ... done
Setting up the integral package (SHARK)            ... done
Starting the Coulomb interaction                   ... done (   1.3 sec)
Reading the grid                                   ... done
Mapping shells                                     ... done
Starting the XC term evaluation                    ... done (   0.5 sec)
Transforming the Hamiltonian                       ... done (   0.3 sec)
Diagonalizing the Hamiltonian                      ... done (   0.5 sec)
Back transforming the eigenvectors                 ... done (   0.2 sec)
Now organizing SCF variables                       ... done
                      ------------------
                      INITIAL GUESS DONE (   6.1 sec)
                      ------------------
--------------
SCF ITERATIONS
--------------
ITER       Energy         Delta-E        Max-DP      RMS-DP      [F,P]     Damp
               ***  Starting incremental Fock matrix formation  ***
  0  -1153.4973986179   0.000000000000 0.21299251  0.00050591  0.3801462 0.7000
  1  -1153.9188804225  -0.421481804521 0.24394620  0.00051821  0.2301248 0.7000
                               ***Turning on DIIS***
  2  -1154.1694577878  -0.250577365380 0.15092987  0.00033516  0.1327294 0.7000
  3  -1156.9738488254  -2.804391037597 0.15526986  0.00049283  0.0784575 0.0000
  4  -1154.5975772819   2.376271543529 0.10118727  0.00016842  0.0078099 0.0000
  5  -1154.7095251930  -0.111947911104 0.03964436  0.00007128  0.0040809 0.0000
                      *** Initiating the SOSCF procedure ***
                           *** Shutting down DIIS ***
                      *** Re-Reading the Fockian *** 
                      *** Removing any level shift *** 
ITER      Energy       Delta-E        Grad      Rot      Max-DP    RMS-DP
  6  -1154.67382530   0.0356998887  0.002376  0.002376  0.024084  0.000041
               *** Restarting incremental Fock matrix formation ***
  7  -1154.69399862  -0.0201733194  0.001448  0.003141  0.011762  0.000024
  8  -1154.69405409  -0.0000554644  0.000487  0.003209  0.013637  0.000024
  9  -1154.69407813  -0.0000240454  0.000136  0.000284  0.003792  0.000007
 10  -1154.69408051  -0.0000023766  0.000085  0.000186  0.001271  0.000003
 11  -1154.69408100  -0.0000004902  0.000026  0.000114  0.000205  0.000001
 12  -1154.69408115  -0.0000001511  0.000010  0.000057  0.000267  0.000001
 13  -1154.69408120  -0.0000000445  0.000005  0.000026  0.000120  0.000000
                  ***Gradient check signals convergence***
              ***Rediagonalizing the Fockian in SOSCF/NRSCF***

               *****************************************************
               *                     SUCCESS                       *
               *           SCF CONVERGED AFTER  14 CYCLES          *
               *****************************************************


----------------
TOTAL SCF ENERGY
----------------

Total Energy       :        -1154.69408118 Eh          -31420.82335 eV

Components:
Nuclear Repulsion  :         2105.41297054 Eh           57291.19956 eV
Electronic Energy  :        -3260.10705171 Eh          -88712.02291 eV
One Electron Energy:        -5791.24625113 Eh         -157587.82210 eV
Two Electron Energy:         2531.13919942 Eh           68875.79919 eV

Virial components:
Potential Energy   :        -2308.61946227 Eh          -62820.72931 eV
Kinetic Energy     :         1153.92538109 Eh           31399.90596 eV
Virial Ratio       :            2.00066616


---------------
SCF CONVERGENCE
---------------

  Last Energy change         ...    1.7951e-08  Tolerance :   1.0000e-08
  Last MAX-Density change    ...    1.0162e-05  Tolerance :   1.0000e-07
  Last RMS-Density change    ...    5.9964e-08  Tolerance :   5.0000e-09
  Last Orbital Gradient      ...    2.4983e-06  Tolerance :   1.0000e-05
  Last Orbital Rotation      ...    1.0540e-05  Tolerance :   1.0000e-05

             **** THE GBW FILE WAS UPDATED (input.gbw) ****
             **** DENSITY input.scfp WAS UPDATED ****
             **** ENERGY FILE WAS UPDATED (input.en.tmp) ****
             **** THE GBW FILE WAS UPDATED (input.gbw) ****
             **** DENSITY input.scfp WAS UPDATED ****
----------------
ORBITAL ENERGIES
----------------

  NO   OCC          E(Eh)            E(eV) 
   0   2.0000     -20.486493      -557.4658 
   1   2.0000     -20.389279      -554.8205 
   2   2.0000     -20.336662      -553.3887 
   3   2.0000     -20.323538      -553.0316 
   4   2.0000     -20.305657      -552.5450 
   5   2.0000     -20.303376      -552.4830 
   6   2.0000     -15.577051      -423.8731 
   7   2.0000     -15.569698      -423.6730 
   8   2.0000     -15.524523      -422.4437 
   9   2.0000     -11.361040      -309.1496 
  10   2.0000     -11.216509      -305.2167 
  11   2.0000     -11.186356      -304.3962 
  12   2.0000     -11.175143      -304.0911 
  13   2.0000     -11.168737      -303.9168 
  14   2.0000     -11.167123      -303.8729 
  15   2.0000     -11.161324      -303.7151 
  16   2.0000     -11.156495      -303.5837 
  17   2.0000     -11.139298      -303.1157 
  18   2.0000     -11.133392      -302.9550 
  19   2.0000     -11.112170      -302.3775 
  20   2.0000     -11.103557      -302.1432 
  21   2.0000     -11.083557      -301.5989 
  22   2.0000     -11.070114      -301.2331 
  23   2.0000      -1.323012       -36.0010 
  24   2.0000      -1.282999       -34.9122 
  25   2.0000      -1.226719       -33.3807 
  26   2.0000      -1.195505       -32.5313 
  27   2.0000      -1.192866       -32.4595 
  28   2.0000      -1.190656       -32.3994 
  29   2.0000      -1.158226       -31.5169 
  30   2.0000      -1.107750       -30.1434 
  31   2.0000      -1.085643       -29.5419 
  32   2.0000      -1.024310       -27.8729 
  33   2.0000      -1.018872       -27.7249 
  34   2.0000      -0.908563       -24.7233 
  35   2.0000      -0.906030       -24.6543 
  36   2.0000      -0.895735       -24.3742 
  37   2.0000      -0.846003       -23.0209 
  38   2.0000      -0.819029       -22.2869 
  39   2.0000      -0.772088       -21.0096 
  40   2.0000      -0.747240       -20.3334 
  41   2.0000      -0.746131       -20.3032 
  42   2.0000      -0.720455       -19.6046 
  43   2.0000      -0.707414       -19.2497 
  44   2.0000      -0.676564       -18.4103 
  45   2.0000      -0.635839       -17.3021 
  46   2.0000      -0.624263       -16.9871 
  47   2.0000      -0.612967       -16.6797 
  48   2.0000      -0.607718       -16.5368 
  49   2.0000      -0.601663       -16.3721 
  50   2.0000      -0.592653       -16.1269 
  51   2.0000      -0.576201       -15.6792 
  52   2.0000      -0.568815       -15.4782 
  53   2.0000      -0.541701       -14.7404 
  54   2.0000      -0.532443       -14.4885 
  55   2.0000      -0.521575       -14.1928 
  56   2.0000      -0.504012       -13.7149 
  57   2.0000      -0.498552       -13.5663 
  58   2.0000      -0.494914       -13.4673 
  59   2.0000      -0.482419       -13.1273 
  60   2.0000      -0.478058       -13.0086 
  61   2.0000      -0.475302       -12.9336 
  62   2.0000      -0.472225       -12.8499 
  63   2.0000      -0.462960       -12.5978 
  64   2.0000      -0.446014       -12.1367 
  65   2.0000      -0.435066       -11.8388 
  66   2.0000      -0.432253       -11.7622 
  67   2.0000      -0.424920       -11.5627 
  68   2.0000      -0.423872       -11.5341 
  69   2.0000      -0.408889       -11.1264 
  70   2.0000      -0.406001       -11.0479 
  71   2.0000      -0.397505       -10.8167 
  72   2.0000      -0.389028       -10.5860 
  73   2.0000      -0.376252       -10.2383 
  74   2.0000      -0.367976       -10.0131 
  75   2.0000      -0.364273        -9.9124 
  76   2.0000      -0.347280        -9.4500 
  77   2.0000      -0.325531        -8.8582 
  78   2.0000      -0.288401        -7.8478 
  79   2.0000      -0.258163        -7.0250 
  80   2.0000      -0.238765        -6.4971 
  81   2.0000      -0.236644        -6.4394 
  82   2.0000      -0.234069        -6.3693 
  83   2.0000      -0.226876        -6.1736 
  84   2.0000      -0.209885        -5.7113 
  85   2.0000      -0.200883        -5.4663 
  86   2.0000      -0.158267        -4.3067 
  87   0.0000       0.117747         3.2041 
  88   0.0000       0.155519         4.2319 
  89   0.0000       0.161149         4.3851 
  90   0.0000       0.173147         4.7116 
  91   0.0000       0.185148         5.0381 
  92   0.0000       0.190712         5.1895 
  93   0.0000       0.207113         5.6358 
  94   0.0000       0.209479         5.7002 
  95   0.0000       0.229889         6.2556 
  96   0.0000       0.235500         6.4083 
  97   0.0000       0.244021         6.6402 
  98   0.0000       0.249095         6.7782 
  99   0.0000       0.254431         6.9234 
 100   0.0000       0.261722         7.1218 
 101   0.0000       0.267680         7.2839 
 102   0.0000       0.273186         7.4338 
 103   0.0000       0.284509         7.7419 
 104   0.0000       0.291336         7.9276 
 105   0.0000       0.303357         8.2548 
 106   0.0000       0.306670         8.3449 
 107   0.0000       0.310987         8.4624 
 108   0.0000       0.317795         8.6476 
 109   0.0000       0.326010         8.8712 
 110   0.0000       0.335996         9.1429 
 111   0.0000       0.340811         9.2739 
 112   0.0000       0.348843         9.4925 
 113   0.0000       0.351263         9.5583 
 114   0.0000       0.358514         9.7557 
 115   0.0000       0.364917         9.9299 
 116   0.0000       0.365516         9.9462 
 117   0.0000       0.380220        10.3463 
 118   0.0000       0.383946        10.4477 
 119   0.0000       0.389660        10.6032 
 120   0.0000       0.399105        10.8602 
 121   0.0000       0.406143        11.0517 
 122   0.0000       0.409115        11.1326 
 123   0.0000       0.418798        11.3961 
 124   0.0000       0.419640        11.4190 
 125   0.0000       0.421686        11.4747 
 126   0.0000       0.431543        11.7429 
 127   0.0000       0.432780        11.7765 
 128   0.0000       0.443737        12.0747 
 129   0.0000       0.449063        12.2196 
 130   0.0000       0.450425        12.2567 
 131   0.0000       0.457211        12.4413 
 132   0.0000       0.469675        12.7805 
 133   0.0000       0.472869        12.8674 
 134   0.0000       0.476600        12.9690 
 135   0.0000       0.482111        13.1189 
 136   0.0000       0.487449        13.2642 
 137   0.0000       0.491506        13.3746 
 138   0.0000       0.496217        13.5028 
 139   0.0000       0.500095        13.6083 
 140   0.0000       0.505156        13.7460 
 141   0.0000       0.508486        13.8366 
 142   0.0000       0.513175        13.9642 
 143   0.0000       0.517475        14.0812 
 144   0.0000       0.521533        14.1916 
 145   0.0000       0.523865        14.2551 
 146   0.0000       0.528549        14.3825 
 147   0.0000       0.533885        14.5278 
 148   0.0000       0.536064        14.5870 
 149   0.0000       0.541230        14.7276 
 150   0.0000       0.543479        14.7888 
 151   0.0000       0.547340        14.8939 
 152   0.0000       0.548930        14.9371 
 153   0.0000       0.554714        15.0945 
 154   0.0000       0.557057        15.1583 
 155   0.0000       0.566428        15.4133 
 156   0.0000       0.570488        15.5238 
 157   0.0000       0.575912        15.6714 
 158   0.0000       0.578732        15.7481 
 159   0.0000       0.582433        15.8488 
 160   0.0000       0.588551        16.0153 
 161   0.0000       0.594120        16.1668 
 162   0.0000       0.597538        16.2598 
 163   0.0000       0.602144        16.3852 
 164   0.0000       0.604990        16.4626 
 165   0.0000       0.609428        16.5834 
 166   0.0000       0.612841        16.6763 
 167   0.0000       0.615881        16.7590 
 168   0.0000       0.617006        16.7896 
 169   0.0000       0.622360        16.9353 
 170   0.0000       0.626981        17.0610 
 171   0.0000       0.628451        17.1010 
 172   0.0000       0.636469        17.3192 
 173   0.0000       0.642408        17.4808 
 174   0.0000       0.645177        17.5562 
 175   0.0000       0.648894        17.6573 
 176   0.0000       0.651572        17.7302 
 177   0.0000       0.658236        17.9115 
 178   0.0000       0.664784        18.0897 
 179   0.0000       0.672114        18.2891 
 180   0.0000       0.677587        18.4381 
 181   0.0000       0.682450        18.5704 
 182   0.0000       0.685791        18.6613 
 183   0.0000       0.689812        18.7707 
 184   0.0000       0.691198        18.8085 
 185   0.0000       0.694894        18.9090 
 186   0.0000       0.699852        19.0439 
 187   0.0000       0.708237        19.2721 
 188   0.0000       0.710611        19.3367 
 189   0.0000       0.716192        19.4886 
 190   0.0000       0.722502        19.6603 
 191   0.0000       0.726997        19.7826 
 192   0.0000       0.738183        20.0870 
 193   0.0000       0.740561        20.1517 
 194   0.0000       0.744363        20.2551 
 195   0.0000       0.747894        20.3512 
 196   0.0000       0.755781        20.5659 
 197   0.0000       0.764384        20.8000 
 198   0.0000       0.772740        21.0273 
 199   0.0000       0.775920        21.1138 
 200   0.0000       0.783570        21.3220 
 201   0.0000       0.786247        21.3949 
 202   0.0000       0.788948        21.4684 
 203   0.0000       0.791804        21.5461 
 204   0.0000       0.794053        21.6073 
 205   0.0000       0.808131        21.9904 
 206   0.0000       0.812097        22.0983 
 207   0.0000       0.815044        22.1785 
 208   0.0000       0.819835        22.3089 
 209   0.0000       0.833028        22.6678 
 210   0.0000       0.833786        22.6885 
 211   0.0000       0.835814        22.7436 
 212   0.0000       0.843744        22.9594 
 213   0.0000       0.845621        23.0105 
 214   0.0000       0.849148        23.1065 
 215   0.0000       0.857562        23.3354 
 216   0.0000       0.861852        23.4522 
 217   0.0000       0.865616        23.5546 
 218   0.0000       0.871543        23.7159 
 219   0.0000       0.874472        23.7956 
 220   0.0000       0.876636        23.8545 
 221   0.0000       0.882980        24.0271 
 222   0.0000       0.886458        24.1217 
 223   0.0000       0.894431        24.3387 
 224   0.0000       0.895500        24.3678 
 225   0.0000       0.900057        24.4918 
 226   0.0000       0.906349        24.6630 
 227   0.0000       0.907392        24.6914 
 228   0.0000       0.912911        24.8416 
 229   0.0000       0.919114        25.0104 
 230   0.0000       0.920163        25.0389 
 231   0.0000       0.925483        25.1837 
 232   0.0000       0.932936        25.3865 
 233   0.0000       0.934225        25.4216 
 234   0.0000       0.941597        25.6221 
 235   0.0000       0.946140        25.7458 
 236   0.0000       0.950065        25.8526 
 237   0.0000       0.955620        26.0038 
 238   0.0000       0.957005        26.0414 
 239   0.0000       0.958256        26.0755 
 240   0.0000       0.968738        26.3607 
 241   0.0000       0.969639        26.3852 
 242   0.0000       0.976173        26.5630 
 243   0.0000       0.980514        26.6811 
 244   0.0000       0.981813        26.7165 
 245   0.0000       0.989718        26.9316 
 246   0.0000       0.997794        27.1514 
 247   0.0000       1.001896        27.2630 
 248   0.0000       1.006116        27.3778 
 249   0.0000       1.009431        27.4680 
 250   0.0000       1.017990        27.7009 
 251   0.0000       1.021956        27.8088 
 252   0.0000       1.025933        27.9171 
 253   0.0000       1.032651        28.0999 
 254   0.0000       1.035748        28.1841 
 255   0.0000       1.037534        28.2327 
 256   0.0000       1.044053        28.4101 
 257   0.0000       1.048528        28.5319 
 258   0.0000       1.052629        28.6435 
 259   0.0000       1.057058        28.7640 
 260   0.0000       1.058530        28.8041 
 261   0.0000       1.064056        28.9544 
 262   0.0000       1.067716        29.0540 
 263   0.0000       1.071022        29.1440 
 264   0.0000       1.075889        29.2764 
 265   0.0000       1.081659        29.4334 
 266   0.0000       1.085929        29.5496 
 267   0.0000       1.090084        29.6627 
 268   0.0000       1.094312        29.7777 
 269   0.0000       1.099247        29.9120 
 270   0.0000       1.102798        30.0087 
 271   0.0000       1.108569        30.1657 
 272   0.0000       1.115339        30.3499 
 273   0.0000       1.122038        30.5322 
 274   0.0000       1.128065        30.6962 
 275   0.0000       1.131675        30.7945 
 276   0.0000       1.137311        30.9478 
 277   0.0000       1.138929        30.9918 
 278   0.0000       1.142729        31.0952 
 279   0.0000       1.146538        31.1989 
 280   0.0000       1.148127        31.2421 
 281   0.0000       1.155554        31.4442 
 282   0.0000       1.158784        31.5321 
 283   0.0000       1.162873        31.6434 
 284   0.0000       1.164324        31.6829 
 285   0.0000       1.170055        31.8388 
 286   0.0000       1.174645        31.9637 
 287   0.0000       1.181491        32.1500 
 288   0.0000       1.184605        32.2347 
 289   0.0000       1.188966        32.3534 
 290   0.0000       1.193105        32.4660 
 291   0.0000       1.200493        32.6671 
 292   0.0000       1.201090        32.6833 
 293   0.0000       1.208030        32.8722 
 294   0.0000       1.212714        32.9996 
 295   0.0000       1.217999        33.1434 
 296   0.0000       1.219626        33.1877 
 297   0.0000       1.225622        33.3509 
 298   0.0000       1.227495        33.4018 
 299   0.0000       1.232786        33.5458 
 300   0.0000       1.235067        33.6079 
 301   0.0000       1.238862        33.7111 
 302   0.0000       1.245832        33.9008 
 303   0.0000       1.248257        33.9668 
 304   0.0000       1.254028        34.1238 
 305   0.0000       1.255438        34.1622 
 306   0.0000       1.261932        34.3389 
 307   0.0000       1.267010        34.4771 
 308   0.0000       1.268747        34.5244 
 309   0.0000       1.274903        34.6919 
 310   0.0000       1.280331        34.8396 
 311   0.0000       1.283459        34.9247 
 312   0.0000       1.288436        35.0601 
 313   0.0000       1.293570        35.1998 
 314   0.0000       1.296454        35.2783 
 315   0.0000       1.300315        35.3834 
 316   0.0000       1.306244        35.5447 
 317   0.0000       1.309494        35.6331 
 318   0.0000       1.313113        35.7316 
 319   0.0000       1.320034        35.9200 
 320   0.0000       1.324745        36.0481 
 321   0.0000       1.326352        36.0919 
 322   0.0000       1.334947        36.3258 
 323   0.0000       1.337172        36.3863 
 324   0.0000       1.341672        36.5087 
 325   0.0000       1.349956        36.7342 
 326   0.0000       1.350933        36.7608 
 327   0.0000       1.357796        36.9475 
 328   0.0000       1.363189        37.0943 
 329   0.0000       1.365825        37.1660 
 330   0.0000       1.375529        37.4300 
 331   0.0000       1.380981        37.5784 
 332   0.0000       1.383581        37.6492 
 333   0.0000       1.391824        37.8735 
 334   0.0000       1.394133        37.9363 
 335   0.0000       1.397921        38.0394 
 336   0.0000       1.402157        38.1546 
 337   0.0000       1.410545        38.3829 
 338   0.0000       1.413879        38.4736 
 339   0.0000       1.415683        38.5227 
 340   0.0000       1.423331        38.7308 
 341   0.0000       1.428846        38.8809 
 342   0.0000       1.433995        39.0210 
 343   0.0000       1.437623        39.1197 
 344   0.0000       1.439532        39.1717 
 345   0.0000       1.450058        39.4581 
 346   0.0000       1.453708        39.5574 
 347   0.0000       1.458373        39.6844 
 348   0.0000       1.471100        40.0307 
 349   0.0000       1.474291        40.1175 
 350   0.0000       1.476653        40.1818 
 351   0.0000       1.482541        40.3420 
 352   0.0000       1.494828        40.6763 
 353   0.0000       1.496567        40.7237 
 354   0.0000       1.500202        40.8226 
 355   0.0000       1.505977        40.9797 
 356   0.0000       1.513485        41.1840 
 357   0.0000       1.517664        41.2977 
 358   0.0000       1.519798        41.3558 
 359   0.0000       1.529114        41.6093 
 360   0.0000       1.540829        41.9281 
 361   0.0000       1.542220        41.9659 
 362   0.0000       1.549440        42.1624 
 363   0.0000       1.563021        42.5320 
 364   0.0000       1.572567        42.7917 
 365   0.0000       1.579701        42.9858 
 366   0.0000       1.584571        43.1184 
 367   0.0000       1.594607        43.3915 
 368   0.0000       1.601522        43.5796 
 369   0.0000       1.607429        43.7404 
 370   0.0000       1.613887        43.9161 
 371   0.0000       1.622632        44.1541 
 372   0.0000       1.627032        44.2738 
 373   0.0000       1.638315        44.5808 
 374   0.0000       1.642132        44.6847 
 375   0.0000       1.645940        44.7883 
 376   0.0000       1.658384        45.1269 
 377   0.0000       1.668034        45.3895 
 378   0.0000       1.679116        45.6911 
 379   0.0000       1.682155        45.7738 
 380   0.0000       1.683386        45.8073 
 381   0.0000       1.686774        45.8994 
 382   0.0000       1.697446        46.1898 
 383   0.0000       1.702547        46.3287 
 384   0.0000       1.709061        46.5059 
 385   0.0000       1.716196        46.7001 
 386   0.0000       1.723640        46.9026 
 387   0.0000       1.731343        47.1122 
 388   0.0000       1.738537        47.3080 
 389   0.0000       1.749224        47.5988 
 390   0.0000       1.757813        47.8325 
 391   0.0000       1.765050        48.0295 
 392   0.0000       1.769417        48.1483 
 393   0.0000       1.777661        48.3726 
 394   0.0000       1.778859        48.4052 
 395   0.0000       1.787379        48.6371 
 396   0.0000       1.791302        48.7438 
 397   0.0000       1.799564        48.9686 
 398   0.0000       1.803640        49.0795 
 399   0.0000       1.804952        49.1152 
 400   0.0000       1.810992        49.2796 
 401   0.0000       1.817571        49.4586 
 402   0.0000       1.829404        49.7806 
 403   0.0000       1.831652        49.8418 
 404   0.0000       1.834100        49.9084 
 405   0.0000       1.835697        49.9519 
 406   0.0000       1.843335        50.1597 
 407   0.0000       1.846111        50.2352 
 408   0.0000       1.861055        50.6419 
 409   0.0000       1.868264        50.8380 
 410   0.0000       1.878347        51.1124 
 411   0.0000       1.891231        51.4630 
 412   0.0000       1.893685        51.5298 
 413   0.0000       1.898239        51.6537 
 414   0.0000       1.902478        51.7690 
 415   0.0000       1.909723        51.9662 
 416   0.0000       1.912341        52.0374 
 417   0.0000       1.926902        52.4337 
 418   0.0000       1.930226        52.5241 
 419   0.0000       1.933139        52.6034 
 420   0.0000       1.941358        52.8270 
 421   0.0000       1.945831        52.9487 
 422   0.0000       1.949649        53.0526 
 423   0.0000       1.964312        53.4517 
 424   0.0000       1.966742        53.5178 
 425   0.0000       1.971991        53.6606 
 426   0.0000       1.976217        53.7756 
 427   0.0000       1.978757        53.8447 
 428   0.0000       1.988699        54.1153 
 429   0.0000       1.997014        54.3415 
 430   0.0000       2.001874        54.4738 
 431   0.0000       2.004021        54.5322 
 432   0.0000       2.005555        54.5739 
 433   0.0000       2.014567        54.8192 
 434   0.0000       2.018027        54.9133 
 435   0.0000       2.029502        55.2256 
 436   0.0000       2.030466        55.2518 
 437   0.0000       2.035683        55.3937 
 438   0.0000       2.045786        55.6687 
 439   0.0000       2.048299        55.7370 
 440   0.0000       2.055587        55.9354 
 441   0.0000       2.058102        56.0038 
 442   0.0000       2.061818        56.1049 
 443   0.0000       2.067134        56.2496 
 444   0.0000       2.076735        56.5108 
 445   0.0000       2.079696        56.5914 
 446   0.0000       2.083618        56.6981 
 447   0.0000       2.086752        56.7834 
 448   0.0000       2.095360        57.0176 
 449   0.0000       2.097777        57.0834 
 450   0.0000       2.103642        57.2430 
 451   0.0000       2.109288        57.3966 
 452   0.0000       2.111628        57.4603 
 453   0.0000       2.119404        57.6719 
 454   0.0000       2.122197        57.7479 
 455   0.0000       2.124835        57.8197 
 456   0.0000       2.132576        58.0303 
 457   0.0000       2.136729        58.1433 
 458   0.0000       2.142004        58.2869 
 459   0.0000       2.145324        58.3772 
 460   0.0000       2.149790        58.4988 
 461   0.0000       2.156066        58.6695 
 462   0.0000       2.158473        58.7350 
 463   0.0000       2.162082        58.8333 
 464   0.0000       2.166898        58.9643 
 465   0.0000       2.172620        59.1200 
 466   0.0000       2.178752        59.2868 
 467   0.0000       2.184676        59.4481 
 468   0.0000       2.189015        59.5661 
 469   0.0000       2.195765        59.7498 
 470   0.0000       2.201495        59.9057 
 471   0.0000       2.210876        60.1610 
 472   0.0000       2.211865        60.1879 
 473   0.0000       2.220641        60.4267 
 474   0.0000       2.221177        60.4413 
 475   0.0000       2.228433        60.6388 
 476   0.0000       2.233457        60.7754 
 477   0.0000       2.233758        60.7836 
 478   0.0000       2.239075        60.9283 
 479   0.0000       2.245399        61.1004 
 480   0.0000       2.248013        61.1716 
 481   0.0000       2.257159        61.4204 
 482   0.0000       2.257919        61.4411 
 483   0.0000       2.264563        61.6219 
 484   0.0000       2.267782        61.7095 
 485   0.0000       2.273702        61.8706 
 486   0.0000       2.284402        62.1617 
 487   0.0000       2.286098        62.2079 
 488   0.0000       2.290435        62.3259 
 489   0.0000       2.298207        62.5374 
 490   0.0000       2.301660        62.6313 
 491   0.0000       2.310131        62.8619 
 492   0.0000       2.313520        62.9541 
 493   0.0000       2.314530        62.9816 
 494   0.0000       2.320369        63.1405 
 495   0.0000       2.322573        63.2004 
 496   0.0000       2.323583        63.2279 
 497   0.0000       2.325695        63.2854 
 498   0.0000       2.331464        63.4424 
 499   0.0000       2.336185        63.5708 
 500   0.0000       2.340262        63.6818 
 501   0.0000       2.346855        63.8612 
 502   0.0000       2.348030        63.8931 
 503   0.0000       2.354825        64.0781 
 504   0.0000       2.359069        64.1935 
 505   0.0000       2.362713        64.2927 
 506   0.0000       2.366955        64.4081 
 507   0.0000       2.371776        64.5393 
 508   0.0000       2.379791        64.7574 
 509   0.0000       2.388055        64.9823 
 510   0.0000       2.391358        65.0722 
 511   0.0000       2.395505        65.1850 
 512   0.0000       2.398431        65.2646 
 513   0.0000       2.406782        65.4919 
 514   0.0000       2.411739        65.6267 
 515   0.0000       2.416283        65.7504 
 516   0.0000       2.420507        65.8653 
 517   0.0000       2.425290        65.9955 
 518   0.0000       2.430743        66.1439 
 519   0.0000       2.435148        66.2637 
 520   0.0000       2.438914        66.3662 
 521   0.0000       2.442892        66.4745 
 522   0.0000       2.444921        66.5297 
 523   0.0000       2.453170        66.7541 
 524   0.0000       2.457939        66.8839 
 525   0.0000       2.459600        66.9291 
 526   0.0000       2.465114        67.0792 
 527   0.0000       2.468832        67.1803 
 528   0.0000       2.471484        67.2525 
 529   0.0000       2.476644        67.3929 
 530   0.0000       2.486274        67.6550 
 531   0.0000       2.492574        67.8264 
 532   0.0000       2.495701        67.9115 
 533   0.0000       2.501811        68.0777 
 534   0.0000       2.503778        68.1313 
 535   0.0000       2.510656        68.3184 
 536   0.0000       2.514647        68.4270 
 537   0.0000       2.524049        68.6829 
 538   0.0000       2.528299        68.7985 
 539   0.0000       2.530094        68.8474 
 540   0.0000       2.531345        68.8814 
 541   0.0000       2.541058        69.1457 
 542   0.0000       2.544174        69.2305 
 543   0.0000       2.548883        69.3586 
 544   0.0000       2.554719        69.5174 
 545   0.0000       2.559345        69.6433 
 546   0.0000       2.562942        69.7412 
 547   0.0000       2.565565        69.8126 
 548   0.0000       2.571955        69.9865 
 549   0.0000       2.573702        70.0340 
 550   0.0000       2.579029        70.1790 
 551   0.0000       2.579648        70.1958 
 552   0.0000       2.589679        70.4688 
 553   0.0000       2.593517        70.5732 
 554   0.0000       2.601235        70.7832 
 555   0.0000       2.604606        70.8749 
 556   0.0000       2.611432        71.0607 
 557   0.0000       2.616871        71.2087 
 558   0.0000       2.619846        71.2896 
 559   0.0000       2.621236        71.3275 
 560   0.0000       2.625462        71.4425 
 561   0.0000       2.635202        71.7075 
 562   0.0000       2.636349        71.7387 
 563   0.0000       2.640486        71.8513 
 564   0.0000       2.645826        71.9966 
 565   0.0000       2.653056        72.1933 
 566   0.0000       2.659802        72.3769 
 567   0.0000       2.660987        72.4092 
 568   0.0000       2.665532        72.5328 
 569   0.0000       2.667696        72.5917 
 570   0.0000       2.672723        72.7285 
 571   0.0000       2.681799        72.9755 
 572   0.0000       2.684239        73.0419 
 573   0.0000       2.691486        73.2391 
 574   0.0000       2.696334        73.3710 
 575   0.0000       2.701625        73.5149 
 576   0.0000       2.704377        73.5898 
 577   0.0000       2.709058        73.7172 
 578   0.0000       2.715051        73.8803 
 579   0.0000       2.718220        73.9665 
 580   0.0000       2.730352        74.2966 
 581   0.0000       2.737057        74.4791 
 582   0.0000       2.741508        74.6002 
 583   0.0000       2.746740        74.7426 
 584   0.0000       2.749842        74.8270 
 585   0.0000       2.752110        74.8887 
 586   0.0000       2.756693        75.0134 
 587   0.0000       2.760492        75.1168 
 588   0.0000       2.766412        75.2779 
 589   0.0000       2.767190        75.2991 
 590   0.0000       2.775715        75.5310 
 591   0.0000       2.777099        75.5687 
 592   0.0000       2.780828        75.6702 
 593   0.0000       2.789109        75.8955 
 594   0.0000       2.794011        76.0289 
 595   0.0000       2.798513        76.1514 
 596   0.0000       2.802171        76.2509 
 597   0.0000       2.805207        76.3336 
 598   0.0000       2.811533        76.5057 
 599   0.0000       2.812018        76.5189 
 600   0.0000       2.817644        76.6720 
 601   0.0000       2.820144        76.7400 
 602   0.0000       2.826029        76.9002 
 603   0.0000       2.829094        76.9836 
 604   0.0000       2.835042        77.1454 
 605   0.0000       2.838353        77.2355 
 606   0.0000       2.841511        77.3215 
 607   0.0000       2.847489        77.4841 
 608   0.0000       2.856025        77.7164 
 609   0.0000       2.858597        77.7864 
 610   0.0000       2.864310        77.9418 
 611   0.0000       2.868578        78.0580 
 612   0.0000       2.876277        78.2675 
 613   0.0000       2.880985        78.3956 
 614   0.0000       2.884558        78.4928 
 615   0.0000       2.887593        78.5754 
 616   0.0000       2.893312        78.7310 
 617   0.0000       2.896508        78.8180 
 618   0.0000       2.899164        78.8903 
 619   0.0000       2.903435        79.0065 
 620   0.0000       2.906629        79.0934 
 621   0.0000       2.912543        79.2543 
 622   0.0000       2.917668        79.3938 
 623   0.0000       2.921210        79.4902 
 624   0.0000       2.929804        79.7240 
 625   0.0000       2.934433        79.8500 
 626   0.0000       2.940649        80.0191 
 627   0.0000       2.944856        80.1336 
 628   0.0000       2.951876        80.3246 
 629   0.0000       2.961231        80.5792 
 630   0.0000       2.962416        80.6114 
 631   0.0000       2.965895        80.7061 
 632   0.0000       2.966851        80.7321 
 633   0.0000       2.972930        80.8975 
 634   0.0000       2.975382        80.9643 
 635   0.0000       2.978196        81.0408 
 636   0.0000       2.990216        81.3679 
 637   0.0000       2.994519        81.4850 
 638   0.0000       2.995902        81.5226 
 639   0.0000       3.006661        81.8154 
 640   0.0000       3.006980        81.8241 
 641   0.0000       3.015075        82.0444 
 642   0.0000       3.027752        82.3893 
 643   0.0000       3.033588        82.5481 
 644   0.0000       3.040506        82.7364 
 645   0.0000       3.044043        82.8326 
 646   0.0000       3.044968        82.8578 
 647   0.0000       3.049049        82.9688 
 648   0.0000       3.054242        83.1101 
 649   0.0000       3.058463        83.2250 
 650   0.0000       3.060647        83.2844 
 651   0.0000       3.066587        83.4461 
 652   0.0000       3.073010        83.6209 
 653   0.0000       3.078892        83.7809 
 654   0.0000       3.084223        83.9260 
 655   0.0000       3.089587        84.0719 
 656   0.0000       3.096297        84.2545 
 657   0.0000       3.099049        84.3294 
 658   0.0000       3.106190        84.5237 
 659   0.0000       3.108932        84.5983 
 660   0.0000       3.114849        84.7593 
 661   0.0000       3.121702        84.9458 
 662   0.0000       3.124477        85.0213 
 663   0.0000       3.128419        85.1286 
 664   0.0000       3.135155        85.3119 
 665   0.0000       3.142383        85.5086 
 666   0.0000       3.150065        85.7176 
 667   0.0000       3.155740        85.8721 
 668   0.0000       3.164199        86.1022 
 669   0.0000       3.166992        86.1782 
 670   0.0000       3.178765        86.4986 
 671   0.0000       3.181257        86.5664 
 672   0.0000       3.185266        86.6755 
 673   0.0000       3.186606        86.7120 
 674   0.0000       3.194493        86.9266 
 675   0.0000       3.197088        86.9972 
 676   0.0000       3.204678        87.2037 
 677   0.0000       3.211541        87.3905 
 678   0.0000       3.218106        87.5691 
 679   0.0000       3.226044        87.7851 
 680   0.0000       3.227698        87.8301 
 681   0.0000       3.231757        87.9406 
 682   0.0000       3.235023        88.0295 
 683   0.0000       3.240233        88.1712 
 684   0.0000       3.248037        88.3836 
 685   0.0000       3.250854        88.4602 
 686   0.0000       3.259692        88.7007 
 687   0.0000       3.268295        88.9348 
 688   0.0000       3.275375        89.1275 
 689   0.0000       3.280960        89.2795 
 690   0.0000       3.285025        89.3901 
 691   0.0000       3.289783        89.5195 
 692   0.0000       3.297403        89.7269 
 693   0.0000       3.303131        89.8828 
 694   0.0000       3.304223        89.9125 
 695   0.0000       3.315369        90.2158 
 696   0.0000       3.319137        90.3183 
 697   0.0000       3.321791        90.3905 
 698   0.0000       3.330719        90.6335 
 699   0.0000       3.336283        90.7849 
 700   0.0000       3.342264        90.9476 
 701   0.0000       3.347827        91.0990 
 702   0.0000       3.348534        91.1182 
 703   0.0000       3.356357        91.3311 
 704   0.0000       3.365814        91.5885 
 705   0.0000       3.372563        91.7721 
 706   0.0000       3.380149        91.9785 
 707   0.0000       3.390861        92.2700 
 708   0.0000       3.395978        92.4093 
 709   0.0000       3.401312        92.5544 
 710   0.0000       3.406818        92.7042 
 711   0.0000       3.409659        92.7815 
 712   0.0000       3.414113        92.9027 
 713   0.0000       3.417148        92.9853 
 714   0.0000       3.429876        93.3317 
 715   0.0000       3.437592        93.5416 
 716   0.0000       3.443466        93.7015 
 717   0.0000       3.445889        93.7674 
 718   0.0000       3.447143        93.8015 
 719   0.0000       3.453174        93.9656 
 720   0.0000       3.456013        94.0429 
 721   0.0000       3.468041        94.3702 
 722   0.0000       3.472304        94.4862 
 723   0.0000       3.477199        94.6194 
 724   0.0000       3.484715        94.8239 
 725   0.0000       3.491012        94.9953 
 726   0.0000       3.498194        95.1907 
 727   0.0000       3.499968        95.2390 
 728   0.0000       3.507748        95.4507 
 729   0.0000       3.513180        95.5985 
 730   0.0000       3.522460        95.8510 
 731   0.0000       3.531719        96.1030 
 732   0.0000       3.535552        96.2073 
 733   0.0000       3.541033        96.3564 
 734   0.0000       3.548457        96.5584 
 735   0.0000       3.551045        96.6288 
 736   0.0000       3.554704        96.7284 
 737   0.0000       3.558340        96.8274 
 738   0.0000       3.563779        96.9754 
 739   0.0000       3.573387        97.2368 
 740   0.0000       3.579246        97.3962 
 741   0.0000       3.584441        97.5376 
 742   0.0000       3.591834        97.7388 
 743   0.0000       3.595546        97.8398 
 744   0.0000       3.600731        97.9809 
 745   0.0000       3.604174        98.0746 
 746   0.0000       3.611053        98.2618 
 747   0.0000       3.619993        98.5050 
 748   0.0000       3.628470        98.7357 
 749   0.0000       3.629769        98.7710 
 750   0.0000       3.641246        99.0833 
 751   0.0000       3.645695        99.2044 
 752   0.0000       3.651920        99.3738 
 753   0.0000       3.665528        99.7441 
 754   0.0000       3.669930        99.8639 
 755   0.0000       3.672894        99.9445 
 756   0.0000       3.678156       100.0877 
 757   0.0000       3.683568       100.2350 
 758   0.0000       3.693043       100.4928 
 759   0.0000       3.696538       100.5879 
 760   0.0000       3.701225       100.7155 
 761   0.0000       3.710714       100.9737 
 762   0.0000       3.720855       101.2496 
 763   0.0000       3.726432       101.4014 
 764   0.0000       3.731681       101.5442 
 765   0.0000       3.741044       101.7990 
 766   0.0000       3.746160       101.9382 
 767   0.0000       3.755561       102.1940 
 768   0.0000       3.761745       102.3623 
 769   0.0000       3.765347       102.4603 
 770   0.0000       3.775558       102.7382 
 771   0.0000       3.783115       102.9438 
 772   0.0000       3.794283       103.2477 
 773   0.0000       3.796249       103.3012 
 774   0.0000       3.797685       103.3403 
 775   0.0000       3.806619       103.5834 
 776   0.0000       3.816362       103.8485 
 777   0.0000       3.821285       103.9825 
 778   0.0000       3.825560       104.0988 
 779   0.0000       3.831079       104.2490 
 780   0.0000       3.839934       104.4899 
 781   0.0000       3.844754       104.6211 
 782   0.0000       3.853778       104.8666 
 783   0.0000       3.864119       105.1480 
 784   0.0000       3.866236       105.2056 
 785   0.0000       3.876652       105.4891 
 786   0.0000       3.880279       105.5878 
 787   0.0000       3.888636       105.8152 
 788   0.0000       3.893089       105.9363 
 789   0.0000       3.894776       105.9822 
 790   0.0000       3.901153       106.1558 
 791   0.0000       3.910176       106.4013 
 792   0.0000       3.912129       106.4544 
 793   0.0000       3.919765       106.6622 
 794   0.0000       3.922009       106.7233 
 795   0.0000       3.929496       106.9270 
 796   0.0000       3.939811       107.2077 
 797   0.0000       3.942445       107.2794 
 798   0.0000       3.951669       107.5304 
 799   0.0000       3.958184       107.7077 
 800   0.0000       3.960436       107.7689 
 801   0.0000       3.964564       107.8813 
 802   0.0000       3.974869       108.1617 
 803   0.0000       3.983300       108.3911 
 804   0.0000       3.988367       108.5290 
 805   0.0000       3.990225       108.5796 
 806   0.0000       3.998855       108.8144 
 807   0.0000       4.002261       108.9071 
 808   0.0000       4.010261       109.1247 
 809   0.0000       4.017633       109.3254 
 810   0.0000       4.022726       109.4639 
[...]
        Max # vectors in DIIS     ... 7
        Start iteration of DIIS   ... 0
        Levelshift                ... 2.000e-01
        Damping factor 1          ... 5.000e-01
        Damping factor 2          ... 1.000e+00
   L-MP2 PNO cut-off              ...   1.0e-09
   L-MP2 PNO cut-off (core)       ...   1.0e-11
                           *** Turning on DIIS ***
LMP2-Iter=   0:  ELMP2= -4.593631703865  DE=   1.1e-01 RMAX=   1.0e-02
LMP2-Iter=   1:  ELMP2= -4.650263866991  DE=   5.7e-02 RMAX=   7.0e-03
LMP2-Iter=   2:  ELMP2= -4.662198668807  DE=   1.2e-02 RMAX=   2.4e-03
LMP2-Iter=   3:  ELMP2= -4.664081249827  DE=   1.9e-03 RMAX=   1.4e-03
LMP2-Iter=   4:  ELMP2= -4.664182366739  DE=   1.0e-04 RMAX=   5.1e-04
LMP2-Iter=   5:  ELMP2= -4.664141511235  DE=   4.1e-05 RMAX=   2.0e-04
LMP2-Iter=   6:  ELMP2= -4.664135671616  DE=   5.8e-06 RMAX=   6.1e-05
LMP2-Iter=   7:  ELMP2= -4.664138494058  DE=   2.8e-06 RMAX=   2.0e-05
LMP2-Iter=   8:  ELMP2= -4.664139772183  DE=   1.3e-06 RMAX=   4.3e-06
LMP2-Iter=   9:  ELMP2= -4.664139623233  DE=   1.5e-07 RMAX=   1.3e-06
LMP2-Iter=  10:  ELMP2= -4.664139543566  DE=   8.0e-08 RMAX=   2.4e-07
LMP2-Iter=  11:  ELMP2= -4.664139464128  DE=   7.9e-08 RMAX=   6.7e-08 => CONVERGED
PASS-2: Formation of Pair natural orbitals
   .... Finished loop over pairs

 PNO Occupation Number Statistics: 
  | Av. % of trace(Dij) retained        ...  97.840825089804
  | sigma^2 in % of trace(Dij) retained ...   7.85e+00
  | Av. % of trace(Di) retained         ...  99.999490817337
  | sigma^2 in % of trace(Di) retained  ...   2.53e-08
 Distributions of % trace(Dij) recovered:
  |       >= 99.9  ...   214 ( 11.7 % of all pairs)
  |   [70.0, 80.0) ...     4 (  0.2 % of all pairs)
  |   [80.0, 90.0) ...    58 (  3.2 % of all pairs)
  |   [90.0, 99.0) ...  1009 ( 55.3 % of all pairs)
  |   [99.0, 99.9) ...   541 ( 29.6 % of all pairs)
 Distributions of % trace(Di) recovered :
  |       >= 99.9  ...    64 (100.0 % of all I-pairs )

Making pair pair interaction lists          ... done

                       ===========================
                       1288 OF 1826 PAIRS ARE KEPT
                       ===========================

Total time spent in the initial guess                 ...  7469.796 sec
L-MP2 correlation energy (all non-screened pairs)     ...      -4.664139464128 Eh
L-MP2 PNO error correction                            ...      -0.000380391642 Eh
                                                          --------------------
Initial total L-MP2 energy (non-screened pairs)       ...      -4.664519855770 Eh

Initial PNO correlation energy                        ...      -4.652090158362 Eh
sum of pair energies estimated for screened out pairs ...      -0.000105539697 Eh
sum of MP2 pair energies for pairs that were not kept ...      -0.002795991490 Eh
sum of PNO error estimates for the kept pairs         ...      -0.010292614987 Eh
                                                          --------------------
sum of all corrections                                         -0.013194146175
Initial total correlation energy                               -4.665284304537
Thresholds for map construction and integral transformation for fine MP2 and CCSD(T) calculation:
   TCutMKN   ...     1.0e-03
   TCutDO    ...     5.0e-03
   TCutPairs ...     1.0e-05
   TCutCMO   ...     1.0e-03
   TCutCPAO  ...     1.0e-03

Time for aux screen maps:            0.027
Time for maps after fine MP2:            0.171
-----------------------------
LOCAL RI TRANSFORMATION (IJV)
-----------------------------

Orbital window:      23 to 86
Basis functions:   1865 (545 shells)
Aux. functions:    4136 (990 shells)
Use SHARK:           on

Processing maps (0.0 sec)
Average map sizes:
   Aux shells -> MOs(i)           58.0
   Aux shells -> MOs(j)           64.0
   MOs        -> AO shells       483.3

Calculating integrals (22.7 sec, 117.567 MB)
Sorting integrals (0.3 sec, 117.520 MB)
Total time for the integral transformation: 23.0 sec
--------------------------------
LOCAL RI TRANSFORMATION (VABPAO)
--------------------------------

Number of PAOs:    1865
Basis functions:   1865 (545 shells)
Aux. functions:    4136 (990 shells)
Use SHARK:           on

Processing maps (0.0 sec)
Average map sizes:
   Aux shells -> PAOs           1852.0
   PAOs       -> AO shells       533.2

Calculating integrals (669.5 sec, 108271.831 MB)
Finished


-------------------------------------
Pair Pair Term precalculation with     
RI-(ij|mn) and (im|jn) transformation  
ON THE FLY                             
-------------------------------------

   IBatch   1 (of  13)              ... done (  885.585 sec)
   IBatch   2 (of  13)              ... done (  771.746 sec)
   IBatch   3 (of  13)              ... done (  392.631 sec)
   IBatch   4 (of  13)              ... done (  754.962 sec)
   IBatch   5 (of  13)              ... done (  586.540 sec)
   IBatch   6 (of  13)              ... done (  749.161 sec)
   IBatch   7 (of  13)              ... done (  913.334 sec)
   IBatch   8 (of  13)              ... done (  654.161 sec)
   IBatch   9 (of  13)              ... done (  891.877 sec)
   IBatch  10 (of  13)              ... done (  978.731 sec)
   IBatch  11 (of  13)              ... done ( 1010.894 sec)
   IBatch  12 (of  13)              ... done ( 1394.861 sec)
   IBatch  13 (of  13)              ... done (  598.738 sec)
Total EXT                           ...       10583.275 sec

---------------------
RI-PNO TRANSFORMATION
---------------------

Total Number of PNOs                   ... 47410
Average number of PNOs per pair        ...    36
Maximal number of PNOs per pair        ...   142
   #pairs with  1 -  5 PNOs   :    0
   #pairs with  6 - 10 PNOs   :  272
   #pairs with 11 - 15 PNOs   :  169
   #pairs with 16 - 20 PNOs   :   80
   #pairs with 21 - 25 PNOs   :   72
   #pairs with 26 - 30 PNOs   :   87
   #pairs with 31 - 35 PNOs   :  104
   #pairs with 36 - 40 PNOs   :   50
   #pairs with 41 - 45 PNOs   :   51
   #pairs with 46 - 50 PNOs   :   21
   #pairs with 51 - 55 PNOs   :   46
   #pairs with 56 - 60 PNOs   :   50
   #pairs with 61 - 65 PNOs   :   33
   #pairs with 66 - 70 PNOs   :   27
   #pairs with 71 - 75 PNOs   :   18
   #pairs with 76 - 80 PNOs   :   51
   #pairs with 81 - 85 PNOs   :   43
   #pairs with 86 - 90 PNOs   :   26
   #pairs with 91 - 95 PNOs   :   48
   #pairs with > 96 PNOs      :   40

Generation of (ij|ab)[P] integrals            ... on
Generation of (ia|bc)[P],(ja|bc)[P] integrals ... on
Storage of 3 and 4 external integrals         ... on
Generation of ALL (ka|bc)[P] integrals        ... on
Keep RI integrals in memory                   ... off

Ibatch:  1 (of  1)
Starting 2-4 index PNO integral generation ... done

Timings:
Total PNO integral transformation time     ...       4516.942 sec
Size of the 3-external file                ...      1651 MB
Size of the 4-external file                ...     17687 MB
Size of the IKJL file                      ...         1 MB
Size of the all 3-external file            ...     50110 MB
Size of the 1-external file                ...        66 MB

Making pair/pair overlap matrices          ... done ( 1262.347 sec)
Size of the pair overlap file              ... 11783 MB
Redoing the guess amplitudes               ... done (    0.167 sec)

-------------------------
FINAL STARTUP INFORMATION
-------------------------

E(0)                                       ...  -1154.694081180
E(L-MP2)                                   ...     -4.664519856
E(L-MP2) including corrections             ...     -4.665284305
Initial E(tot)                             ...  -1159.359365485
<T|T>                                      ...      1.157136323
Number of pairs included                   ... 1288
Total number of pairs                      ... 2080

------------------------------------------------
                  RHF COUPLED CLUSTER ITERATIONS
------------------------------------------------

Number of PNO amplitudes to be optimized   ...      2838432
Number of non-PNO amplitudes               ...   4071733792
Untruncated number of regular amplitudes   ...   6575470720

Iter       E(tot)           E(Corr)          Delta-E          Residual     Time
  0  -1159.179769885     -4.472494558      0.192025298      0.017151690 5043.35
                           *** Turning on DIIS ***
  1  -1159.229405355     -4.522130029     -0.049635470      0.011717847 5085.29
  2  -1159.329501685     -4.622226359     -0.100096330      0.006779268 5261.54
  3  -1159.352782292     -4.645506966     -0.023280607      0.005725821 5159.41
  4  -1159.359844516     -4.652569189     -0.007062224      0.003164260 4742.48
  5  -1159.362770310     -4.655494983     -0.002925794      0.001968862 4571.29
  6  -1159.363508945     -4.656233619     -0.000738636      0.001077720 4612.97
  7  -1159.363816899     -4.656541573     -0.000307954      0.000668511 4421.78
  8  -1159.363908092     -4.656632765     -0.000091192      0.000402659 4424.54
  9  -1159.363903195     -4.656627868      0.000004897      0.000245510 4162.76
 10  -1159.363924648     -4.656649321     -0.000021453      0.000112827 4104.57
 11  -1159.363925204     -4.656649877     -0.000000556      0.000050393 4153.15
 12  -1159.363924223     -4.656648897      0.000000980      0.000020992 4165.14
 13  -1159.363918341     -4.656643014      0.000005883      0.000015161 4184.64
 14  -1159.363914518     -4.656639192      0.000003823      0.000011963 4154.54
 15  -1159.363911906     -4.656636579      0.000002613      0.000006964 4196.33
               --- The Coupled-Cluster iterations have converged ---

----------------------
COUPLED CLUSTER ENERGY
----------------------

E(0)                                       ...  -1154.694081180
E(CORR)(strong-pairs)                      ...     -4.656636579
E(CORR)(weak-pairs)                        ...     -0.013194146
E(CORR)(corrected)                         ...     -4.669830725
E(TOT)                                     ...  -1159.363911906
Singles Norm <S|S>**1/2                    ...      0.172642627  
T1 diagnostic                              ...      0.015259597  

------------------
LARGEST AMPLITUDES
------------------
  54-> 87  54-> 87       0.052809
  64-> 87  -1-> -1       0.048113
  64-> 87  64-> 87       0.046877
  67-> 88  67-> 88       0.044507
  54-> 88  54-> 88       0.042812
  54-> 87  -1-> -1       0.042245
  44-> 87  44-> 87       0.039490
  46-> 89  46-> 89       0.036756
  50-> 87  50-> 87       0.036724
  59-> 87  59-> 87       0.036108
  58-> 87  58-> 87       0.035719
  41-> 87  41-> 87       0.035183
  67-> 87  67-> 87       0.035167
  56-> 90  56-> 90       0.034717
  79-> 87  79-> 87       0.034602
  74-> 91  74-> 91       0.034415


-------------------------------------------
DLPNO BASED TRIPLES CORRECTION
-------------------------------------------

Singles multiplier          ...  1.000000
TCutTNO                     ... 1.000e-09
TCutMP2Pairs                ... 1.000e-06
TCutDOStrong                ... 1.000e-02
TCutMKNStrong               ... 1.000e-02
TCutDOWeak                  ... 2.000e-02
TCutMKNWeak                 ... 1.000e-01

Fragment selection                          .... not used
Fock matrix occ-virt block is zero --> Setting DT_in_Triples to false.
Number of Triples that are to be computed   ...     24752

 . . . . . . . . .             (   7681.025 sec)
 . . . . . . . . .
10% done               (   8609.165 sec)
 . . . . . . . . .
20% done               (   8666.594 sec)
 . . . . . . . . .
30% done               (   9907.141 sec)
 . . . . . . . . .
40% done               (  11524.280 sec)
 . . . . . . . . .
50% done               (  13396.241 sec)
 . . . . . . . . .
60% done  
70% done               (  16919.274 sec)
 . . . . . . . . .
80% done  
90% done               (  14065.931 sec)
Triples timings:
Total time for T0               ... 100893.618 sec
Total time for Iterative (T)    ...     0.000 sec
Total time of overall (T)       ... 103097.294 sec

Triples List generation         ...     0.000 sec
TNO generation                  ... 10123.287 sec
Pair density generation         ...     0.075 sec
Look up tables                  ...     0.000 sec
Generating 3-index integrals    ... 76046.456 sec
  Make 4-ind.int. from 3-ind.int...   924.585 sec
  Projecting amplitudes (D + S) ... 13051.638 sec
  Downprojecting integrals      ...     0.032 sec
  Energy contr. (sum over a,b,c)...    56.374 sec
Fitting ET(->0)                 ...     0.000 sec

Everything after 3-index        ... 14723.195 sec

Timing details:
 TNO integrals                  ... 76945.376 sec
   Reading 3-index integrals    ...  2618.551 sec
   Sorting integrals            ...  5285.329 sec
       Sorting integrals 1      ...     0.027 sec
       Sorting integrals 2      ...  5190.925 sec
       Sorting integrals 3      ...    15.749 sec
       Sorting integrals 4      ...     1.555 sec
       Sorting integrals 5      ...    21.956 sec
       Sorting integrals 6      ...    55.116 sec
   Calculating local VM**-1/2   ...    71.220 sec
   Orthogonal. integrals        ...   106.001 sec
   Multipl. 3-index integrals   ... 68864.275 sec
   All concerning IRIab (w/TNO) ...   666.515 sec

 Calculate W0/W1                ...   690.478 sec
 W 3-ext contribution           ...   450.906 sec
 W 3-int contribution           ...   177.073 sec
 Sorting W                      ...    56.954 sec

 V exchange contribution        ...    12.993 sec

 Timings for Triples without generation
     of 3-index integrals       ... 14723.164 sec
       0 weak pairs             ... 10979.294 sec
       1 weak pair              ...  3743.869 sec
       2 weak pairs             ...     0.000 sec
       3 weak pairs             ...     0.000 sec
  Extra time for extrapolation  ...     0.000 sec

Number of Triples   (0, 1, 2, 3 weak pairs; overall):  15101    9651       0       0  ( 24752)
Number of Atoms     (0, 1, 2, 3 weak pairs; overall):   27.8    25.5     0.0     0.0  (    43)
Number of PAOs      (0, 1, 2, 3 weak pairs; overall): 1260.8  1166.2     0.0     0.0  (  1865)
Number of AuxFcns   (0, 1, 2, 3 weak pairs; overall):  970.5   643.1     0.0     0.0  (  4136)
Number of TNOs      (0, 1, 2, 3 weak pairs         ):  105.4    58.1     0.0     0.0
Aver. Number of NTNO, Atoms, PAOs, AuxFcns / Triples:  24752    87.0    26.9  1223.9   842.8

Triples Correction (T)                     ...     -0.222340484
Final correlation energy                   ...     -4.892171210
E(CCSD)                                    ...  -1159.363911906
E(CCSD(T))                                 ...  -1159.586252390



--------------------------------------------------------------------------------
                                    TIMINGS
--------------------------------------------------------------------------------


Total execution time                   ...   202847.033 sec

Localization of occupied MO's          ...       54.404 sec (  0.0%)
Fock Matrix Formation                  ...      721.673 sec (  0.4%)
Global overlap, Fock, MKN matrices     ...       23.951 sec (  0.0%)
Differential overlap integrals         ...        7.712 sec (  0.0%)
Organizing maps                        ...        0.547 sec (  0.0%)
RI 3-index integral generations        ...     1116.017 sec (  0.6%)
RI-PNO integral transformation         ...    16520.686 sec (  8.1%)
Initial Guess                          ...     8856.975 sec (  4.4%)
DIIS Solver                            ...      310.835 sec (  0.2%)
State Vector Update                    ...        0.328 sec (  0.0%)
Sigma-vector construction              ...    72422.672 sec ( 35.7%)
  <0|H|D>                              ...        0.006 sec (  0.0% of sigma)
  <D|H|D>(0-ext)                       ...    17723.474 sec ( 24.5% of sigma)
  <D|H|D>(2-ext Fock)                  ...        6.565 sec (  0.0% of sigma)
  <D|H|D>(2-ext)                       ...     5652.760 sec (  7.8% of sigma)
  <D|H|D>(4-ext)                       ...      325.041 sec (  0.4% of sigma)
  <D|H|D>(4-ext-corr)                  ...     1679.181 sec (  2.3% of sigma)
  CCSD doubles correction              ...     1134.130 sec (  1.6% of sigma)
  <S|H|S>                              ...      164.630 sec (  0.2% of sigma)
  <S|H|D>(1-ext)                       ...       73.249 sec (  0.1% of sigma)
  <D|H|S>(1-ext)                       ...        6.449 sec (  0.0% of sigma)
  <S|H|D>(3-ext)                       ...       53.360 sec (  0.1% of sigma)
  CCSD singles correction              ...        0.003 sec (  0.0% of sigma)
  Fock-dressing                        ...    21837.776 sec ( 30.2% of sigma)
  Singles amplitudes                   ...      328.101 sec (  0.5% of sigma)
  (ik|jl)-dressing                     ...    19369.122 sec ( 26.7% of sigma)
  (ij|ab),(ia|jb)-dressing             ...     3738.414 sec (  5.2% of sigma)
  Pair energies                        ...        0.066 sec (  0.0% of sigma)
Total Time for computing (T)           ...   103097.383 sec ( 50.8% of ALL)


Maximum memory used throughout the entire MDCI-calculation: 10347.9 MB

-------------------------   --------------------
FINAL SINGLE POINT ENERGY     -1159.586252389973
-------------------------   --------------------


                            ***************************************
                            *     ORCA property calculations      *
                            ***************************************


  WARNING: The energy has been calculated at the MDCI level but the densities
           used in the property calculations are still SCF densities
           MDCI response densities have not been calculated 
           use %mdci Density linearized end
           or  %mdci Density unrelaxed end
           or  %mdci Density orbopt end

                                    ---------------------
                                    Active property flags
                                    ---------------------
   (+) Dipole Moment


------------------------------------------------------------------------------
                       ORCA ELECTRIC PROPERTIES CALCULATION
------------------------------------------------------------------------------

Dipole Moment Calculation                       ... on
Quadrupole Moment Calculation                   ... off
Polarizability Calculation                      ... off
GBWName                                         ... input.gbw
Electron density                                ... input.scfp
The origin for moment calculation is the CENTER OF MASS  = (20.303157, 17.772832 17.223360)

-------------
DIPOLE MOMENT
-------------
                                X             Y             Z
Electronic contribution:     22.09358      -9.77080       0.13241
Nuclear contribution   :    -31.53763      12.41113       5.08040
                        -----------------------------------------
Total Dipole Moment    :     -9.44405       2.64033       5.21281
                        -----------------------------------------
Magnitude (a.u.)       :     11.10562
Magnitude (Debye)      :     28.22825



--------------------
Rotational spectrum 
--------------------
 
Rotational constants in cm-1:     0.015889     0.005155     0.004891 
Rotational constants in MHz :   476.341170   154.530320   146.614867 

 Dipole components along the rotational axes: 
x,y,z [a.u.] :     9.981215     4.631167     1.504157 
x,y,z [Debye]:    25.370232    11.771492     3.823263 

 

Timings for individual modules:

Sum of individual times         ...   209321.874 sec (=3488.698 min)
GTO integral calculation        ...       36.730 sec (=   0.612 min)   0.0 %
SCF iterations                  ...     6433.145 sec (= 107.219 min)   3.1 %
MDCI module                     ...   202851.999 sec (=3380.867 min)  96.9 %
                             ****ORCA TERMINATED NORMALLY****
TOTAL RUN TIME: 2 days 10 hours 8 minutes 50 seconds 174 msec
