Loading orca/5.0.3
  Loading requirement: gcc-runtime/11.3.1-gcc-11.3.1-jw6fhud
    numactl/2.0.14-gcc-11.3.1-tqvsbcd openssh/8.7p1-gcc-11.3.1-ddo4kmk
    libiconv/1.17-gcc-11.3.1-h3jdn2x xz/5.4.1-gcc-11.3.1-y32p7p3
    zlib/1.2.13-gcc-11.3.1-dwcx77k libxml2/2.10.3-gcc-11.3.1-m4mk5ab
    cuda/11.8.0-gcc-11.3.1-i5witig libpciaccess/0.17-gcc-11.3.1-qksiqer
    ncurses/6.4-gcc-11.3.1-afnu276 hwloc/2.9.1-gcc-11.3.1-qedjm66
    openssl/3.1.2-gcc-11.3.1-mgoa6lt libevent/2.1.12-gcc-11.3.1-bpr3m74
    pmix/4.2.2-gcc-11.3.1-du4y5e7 slurm/22.05.6-gcc-11.3.1-atym2np
    libnl/3.3.0-gcc-11.3.1-gh3muw7 rdma-core/41.0-gcc-11.3.1-isp54jw
    ucx/1.14.1-gcc-11.3.1-o3wj4kz openmpi/4.1.2-gcc-11.3.1-fs7u3kb

                                 *****************
                                 * O   R   C   A *
                                 *****************

                                            #,                                       
                                            ###                                      
                                            ####                                     
                                            #####                                    
                                            ######                                   
                                           ########,                                 
                                     ,,################,,,,,                         
                               ,,#################################,,                 
                          ,,##########################################,,             
                       ,#########################################, ''#####,          
                    ,#############################################,,   '####,        
                  ,##################################################,,,,####,       
                ,###########''''           ''''###############################       
              ,#####''   ,,,,##########,,,,          '''####'''          '####       
            ,##' ,,,,###########################,,,                        '##       
           ' ,,###''''                  '''############,,,                           
         ,,##''                                '''############,,,,        ,,,,,,###''
      ,#''                                            '''#######################'''  
     '                                                          ''''####''''         
             ,#######,   #######,   ,#######,      ##                                
            ,#'     '#,  ##    ##  ,#'     '#,    #''#        ######   ,####,        
            ##       ##  ##   ,#'  ##            #'  '#       #        #'  '#        
            ##       ##  #######   ##           ,######,      #####,   #    #        
            '#,     ,#'  ##    ##  '#,     ,#' ,#      #,         ##   #,  ,#        
             '#######'   ##     ##  '#######'  #'      '#     #####' # '####'        



                  #######################################################
                  #                        -***-                        #
                  #          Department of theory and spectroscopy      #
                  #    Directorship and core code : Frank Neese         #
                  #        Max Planck Institute fuer Kohlenforschung    #
                  #                Kaiser Wilhelm Platz 1               #
                  #                 D-45470 Muelheim/Ruhr               #
                  #                      Germany                        #
                  #                                                     #
                  #                  All rights reserved                #
                  #                        -***-                        #
                  #######################################################


                         Program Version 5.0.3 -  RELEASE  -


 With contributions from (in alphabetic order):
   Daniel Aravena         : Magnetic Suceptibility
   Michael Atanasov       : Ab Initio Ligand Field Theory (pilot matlab implementation)
   Alexander A. Auer      : GIAO ZORA, VPT2 properties, NMR spectrum
   Ute Becker             : Parallelization
   Giovanni Bistoni       : ED, misc. LED, open-shell LED, HFLD
   Martin Brehm           : Molecular dynamics
   Dmytro Bykov           : SCF Hessian
   Vijay G. Chilkuri      : MRCI spin determinant printing, contributions to CSF-ICE
   Dipayan Datta          : RHF DLPNO-CCSD density
   Achintya Kumar Dutta   : EOM-CC, STEOM-CC
   Dmitry Ganyushin       : Spin-Orbit,Spin-Spin,Magnetic field MRCI
   Miquel Garcia          : C-PCM and meta-GGA Hessian, CC/C-PCM, Gaussian charge scheme
   Yang Guo               : DLPNO-NEVPT2, F12-NEVPT2, CIM, IAO-localization
   Andreas Hansen         : Spin unrestricted coupled pair/coupled cluster methods
   Benjamin Helmich-Paris : MC-RPA, TRAH-SCF, COSX integrals
   Lee Huntington         : MR-EOM, pCC
   Robert Izsak           : Overlap fitted RIJCOSX, COSX-SCS-MP3, EOM
   Marcus Kettner         : VPT2
   Christian Kollmar      : KDIIS, OOCD, Brueckner-CCSD(T), CCSD density, CASPT2, CASPT2-K
   Simone Kossmann        : Meta GGA functionals, TD-DFT gradient, OOMP2, MP2 Hessian
   Martin Krupicka        : Initial AUTO-CI
   Lucas Lang             : DCDCAS
   Marvin Lechner         : AUTO-CI (C++ implementation), FIC-MRCC
   Dagmar Lenk            : GEPOL surface, SMD
   Dimitrios Liakos       : Extrapolation schemes; Compound Job, initial MDCI parallelization
   Dimitrios Manganas     : Further ROCIS development; embedding schemes
   Dimitrios Pantazis     : SARC Basis sets
   Anastasios Papadopoulos: AUTO-CI, single reference methods and gradients
   Taras Petrenko         : DFT Hessian,TD-DFT gradient, ASA, ECA, R-Raman, ABS, FL, XAS/XES, NRVS
   Peter Pinski           : DLPNO-MP2, DLPNO-MP2 Gradient
   Christoph Reimann      : Effective Core Potentials
   Marius Retegan         : Local ZFS, SOC
   Christoph Riplinger    : Optimizer, TS searches, QM/MM, DLPNO-CCSD(T), (RO)-DLPNO pert. Triples
   Tobias Risthaus        : Range-separated hybrids, TD-DFT gradient, RPA, STAB
   Michael Roemelt        : Original ROCIS implementation
   Masaaki Saitow         : Open-shell DLPNO-CCSD energy and density
   Barbara Sandhoefer     : DKH picture change effects
   Avijit Sen             : IP-ROCIS
   Kantharuban Sivalingam : CASSCF convergence, NEVPT2, FIC-MRCI
   Bernardo de Souza      : ESD, SOC TD-DFT
   Georgi Stoychev        : AutoAux, RI-MP2 NMR, DLPNO-MP2 response
   Willem Van den Heuvel  : Paramagnetic NMR
   Boris Wezisla          : Elementary symmetry handling
   Frank Wennmohs         : Technical directorship


 We gratefully acknowledge several colleagues who have allowed us to
 interface, adapt or use parts of their codes:
   Stefan Grimme, W. Hujo, H. Kruse, P. Pracht,  : VdW corrections, initial TS optimization,
                  C. Bannwarth, S. Ehlert          DFT functionals, gCP, sTDA/sTD-DF
   Ed Valeev, F. Pavosevic, A. Kumar             : LibInt (2-el integral package), F12 methods
   Garnet Chan, S. Sharma, J. Yang, R. Olivares  : DMRG
   Ulf Ekstrom                                   : XCFun DFT Library
   Mihaly Kallay                                 : mrcc  (arbitrary order and MRCC methods)
   Jiri Pittner, Ondrej Demel                    : Mk-CCSD
   Frank Weinhold                                : gennbo (NPA and NBO analysis)
   Christopher J. Cramer and Donald G. Truhlar   : smd solvation model
   Lars Goerigk                                  : TD-DFT with DH, B97 family of functionals
   V. Asgeirsson, H. Jonsson                     : NEB implementation
   FAccTs GmbH                                   : IRC, NEB, NEB-TS, DLPNO-Multilevel, CI-OPT
                                                   MM, QMMM, 2- and 3-layer-ONIOM, Crystal-QMMM,
                                                   LR-CPCM, SF, NACMEs, symmetry and pop. for TD-DFT,
                                                   nearIR, NL-DFT gradient (VV10), updates on ESD,
                                                   ML-optimized integration grids
   S Lehtola, MJT Oliveira, MAL Marques          : LibXC Library
   Liviu Ungur et al                             : ANISO software


 Your calculation uses the libint2 library for the computation of 2-el integrals
 For citations please refer to: http://libint.valeyev.net

 Your ORCA version has been built with support for libXC version: 5.1.0
 For citations please refer to: https://tddft.org/programs/libxc/

 This ORCA versions uses:
   CBLAS   interface :  Fast vector & matrix operations
   LAPACKE interface :  Fast linear algebra routines
   SCALAPACK package :  Parallel linear algebra routines
   Shared memory     :  Shared parallel matrices
   BLAS/LAPACK       :  OpenBLAS 0.3.15  USE64BITINT DYNAMIC_ARCH NO_AFFINITY Prescott SINGLE_THREADED
        Core in use  :  Prescott
   Copyright (c) 2011-2014, The OpenBLAS Project


================================================================================

----- Orbital basis set information -----
Your calculation utilizes the basis: cc-pVQZ 
       H, B-Ne : Obtained from the ccRepo (grant-hill.group.shef.ac.uk/ccrepo) Feb. 2017
                 T. H. Dunning, Jr., J. Chem. Phys. 90, 1007 (1989)
            He : Obtained from the ccRepo (grant-hill.group.shef.ac.uk/ccrepo) Feb. 2017
                 D. E. Woon, T. H. Dunning, Jr., J. Chem. Phys. 100, 2975 (1994)
  Li-Be, Na-Mg : Obtained from the ccRepo (grant-hill.group.shef.ac.uk/ccrepo) Feb. 2017
                 B. P. Prascher, D. E. Woon, K. A. Peterson, T. H. Dunning, Jr., A. K. Wilson, Theor. Chem. Acc. 128, 69 (2011)
         Al-Ar : Obtained from the ccRepo (grant-hill.group.shef.ac.uk/ccrepo) Feb. 2017
                 D. E. Woon, T. H. Dunning, Jr., J. Chem. Phys. 98, 1358 (1993)
            Ca : Obtained from the Peterson Research Group Website (tyr0.chem.wsu.edu/~kipeters) Feb. 2017
                 J. Koput, K. A. Peterson, J. Phys. Chem. 106, 9595 (2002)
         Sc-Zn : Obtained from the ccRepo (grant-hill.group.shef.ac.uk/ccrepo) Feb. 2017
                 N. B. Balabanov, K. A. Peterson, J. Chem. Phys. 123, 064107 (2005)
                 N. B. Balabanov, K. A. Peterson, J. Chem. Phys. 125, 074110 (2006)
         Ga-Kr : Obtained from the ccRepo (grant-hill.group.shef.ac.uk/ccrepo) Feb. 2017
                 A. K. Wilson, D. E. Woon, K. A. Peterson, T. H. Dunning, Jr., J. Chem. Phys. 110, 7667 (1999)

----- AuxC basis set information -----
Your calculation utilizes the auxiliary basis: cc-pVQZ/C 
  Obtained from the EMSL Basis Set Exchange (bse.pnl.gov) Feb. 2017
  H-He, B-F, Al-Ar, Ga-Kr : F. Weigend, A. Kohn, C. Hattig, J. Chem. Phys. 116, 3175 (2002)
             Li-Be, Na-Mg : C. Haettig, Phys. Chem. Chem. Phys. 7, 59 (2005)
                       Ne : C. Haettig, Phys. Chem. Chem. Phys. 7, 59 (2005)
                            F. Weigend, A. Kohn, C. Hattig, J. Chem. Phys. 116, 3175 (2002)
                    Sc-Zn : D. H. Bross, J. G. Hill, H. J. Werner, K. A. Peterson, J. Chem. Phys. 139, 094302 (2013)

================================================================================
                                        WARNINGS
                       Please study these warnings very carefully!
================================================================================


WARNING: Post HF methods need fully converged wavefunctions
  ===> : Setting SCFConvForced true
         You can overwrite this default with %scf ConvForced false 


WARNING: MDCI localization with Augmented Hessian Foster-Boys
  ===> : Switching off randomization!

INFO   : the flag for use of the SHARK integral package has been found!

================================================================================
                                       INPUT FILE
================================================================================
NAME = input
|  1> ! DLPNO-CCSD(T) cc-pVQZ cc-pVQZ/C TIGHTPNO TIGHTSCF
|  2> %maxcore 10000
|  3> %pal
|  4> nprocs 32
|  5> end
|  6> *xyz -1 1
|  7> H 4.321730672114 12.904763836984 8.261164929022
|  8> C 4.604587000000 11.906783000000 8.561875000000
|  9> H 5.197260000000 11.475664000000 7.746354000000
| 10> H 3.713945000000 11.280302000000 8.649413000000
| 11> C 5.379067000000 11.708466000000 9.846010000000
| 12> H 5.566006000000 10.636134000000 9.947043000000
| 13> H 4.754447000000 12.000319000000 10.695421000000
| 14> C 6.712682000000 12.434360000000 9.859956000000
| 15> H 6.618478000000 13.428035000000 10.300632000000
| 16> H 7.036449000000 12.582221000000 8.832895000000
| 17> N 7.802916000000 11.720036000000 10.492795000000
| 18> H 8.575269000000 11.455317000000 9.871535000000
| 19> C 8.069695000000 11.735932000000 11.784094000000
| 20> N 7.125281000000 12.107875000000 12.671146000000
| 21> H 6.165992000000 11.913045000000 12.451825000000
| 22> H 7.400324000000 12.023620000000 13.641250000000
| 23> N 9.267893000000 11.424233000000 12.221434000000
| 24> H 9.444627000000 11.490269000000 13.219045000000
| 25> H 10.002987000000 11.144741000000 11.573021000000
| 26> C 13.041293000000 10.526962000000 9.202960000000
| 27> H 13.629228000000 10.596702000000 10.105153000000
| 28> H 13.522964000000 10.843712000000 8.288988000000
| 29> C 11.666773000000 10.652070000000 9.361922000000
| 30> C 10.722467000000 11.024309000000 8.205849000000
| 31> O 11.142521000000 11.024400000000 7.023911000000
| 32> O 9.558295000000 11.353880000000 8.501258000000
| 33> O 11.120561000000 10.420635000000 10.468219000000
| 34> C 11.173806000000 8.180176000000 10.784929000000
| 35> H 10.618395000000 8.307622000000 11.701917000000
| 36> C 12.530843000000 8.256310000000 10.776303000000
| 37> H 13.065737000000 8.580668000000 11.652369000000
| 38> C 13.227602000000 8.150089000000 9.577124000000
| 39> C 12.555252000000 7.508656000000 8.447998000000
| 40> H 13.178313000000 7.187960000000 7.623223000000
| 41> C 11.250651000000 7.264301000000 8.474914000000
| 42> H 10.763976000000 6.739750000000 7.662499000000
| 43> C 10.384803000000 7.676918000000 9.614723000000
| 44> H 9.747108000000 8.502082000000 9.270476000000
| 45> O 9.587617000000 6.581709000000 9.987197000000
| 46> H 8.868763000000 6.899525000000 10.629321000000
| 47> C 14.761982000000 8.088940000000 9.580145000000
| 48> O 15.341525000000 8.201954000000 10.688649000000
| 49> O 15.319978000000 7.888160000000 8.497244000000
| 50> *
| 51> 
| 52>                          ****END OF INPUT****
================================================================================

                       ****************************
                       * Single Point Calculation *
                       ****************************

---------------------------------
CARTESIAN COORDINATES (ANGSTROEM)
---------------------------------
  H      4.321731   12.904764    8.261165
  C      4.604587   11.906783    8.561875
  H      5.197260   11.475664    7.746354
  H      3.713945   11.280302    8.649413
  C      5.379067   11.708466    9.846010
  H      5.566006   10.636134    9.947043
  H      4.754447   12.000319   10.695421
  C      6.712682   12.434360    9.859956
  H      6.618478   13.428035   10.300632
  H      7.036449   12.582221    8.832895
  N      7.802916   11.720036   10.492795
  H      8.575269   11.455317    9.871535
  C      8.069695   11.735932   11.784094
  N      7.125281   12.107875   12.671146
  H      6.165992   11.913045   12.451825
  H      7.400324   12.023620   13.641250
  N      9.267893   11.424233   12.221434
  H      9.444627   11.490269   13.219045
  H     10.002987   11.144741   11.573021
  C     13.041293   10.526962    9.202960
  H     13.629228   10.596702   10.105153
  H     13.522964   10.843712    8.288988
  C     11.666773   10.652070    9.361922
  C     10.722467   11.024309    8.205849
  O     11.142521   11.024400    7.023911
  O      9.558295   11.353880    8.501258
  O     11.120561   10.420635   10.468219
  C     11.173806    8.180176   10.784929
  H     10.618395    8.307622   11.701917
  C     12.530843    8.256310   10.776303
  H     13.065737    8.580668   11.652369
  C     13.227602    8.150089    9.577124
  C     12.555252    7.508656    8.447998
  H     13.178313    7.187960    7.623223
  C     11.250651    7.264301    8.474914
  H     10.763976    6.739750    7.662499
  C     10.384803    7.676918    9.614723
  H      9.747108    8.502082    9.270476
  O      9.587617    6.581709    9.987197
  H      8.868763    6.899525   10.629321
  C     14.761982    8.088940    9.580145
  O     15.341525    8.201954   10.688649
  O     15.319978    7.888160    8.497244

----------------------------
CARTESIAN COORDINATES (A.U.)
----------------------------
  NO LB      ZA    FRAG     MASS         X           Y           Z
   0 H     1.0000    0     1.008    8.166887   24.386469   15.611339
   1 C     6.0000    0    12.011    8.701408   22.500559   16.179599
   2 H     1.0000    0     1.008    9.821398   21.685862   14.638488
   3 H     1.0000    0     1.008    7.018339   21.316681   16.345022
   4 C     6.0000    0    12.011   10.164963   22.125794   18.606262
   5 H     1.0000    0     1.008   10.518227   20.099380   18.797187
   6 H     1.0000    0     1.008    8.984603   22.677316   20.211417
   7 C     6.0000    0    12.011   12.685131   23.497535   18.632617
   8 H     1.0000    0     1.008   12.507111   25.375309   19.465373
   9 H     1.0000    0     1.008   13.296962   23.776952   16.691753
  10 N     7.0000    0    14.007   14.745374   22.147658   19.828509
  11 H     1.0000    0     1.008   16.204910   21.647412   18.654498
  12 C     6.0000    0    12.011   15.249514   22.177697   22.268710
  13 N     7.0000    0    14.007   13.464830   22.880568   23.944996
  14 H     1.0000    0     1.008   11.652036   22.512392   23.530539
  15 H     1.0000    0     1.008   13.984586   22.721349   25.778227
  16 N     7.0000    0    14.007   17.513780   21.588672   23.095163
  17 H     1.0000    0     1.008   17.847758   21.713462   24.980375
  18 H     1.0000    0     1.008   18.902906   21.060508   21.869840
  19 C     6.0000    0    12.011   24.644472   19.893075   17.391074
  20 H     1.0000    0     1.008   25.755508   20.024865   19.095972
  21 H     1.0000    0     1.008   25.554698   20.491646   15.663917
  22 C     6.0000    0    12.011   22.047006   20.129495   17.691469
  23 C     6.0000    0    12.011   20.262526   20.832925   15.506807
  24 O     8.0000    0    15.999   21.056313   20.833097   13.273268
  25 O     8.0000    0    15.999   18.062560   21.455724   16.065049
  26 O     8.0000    0    15.999   21.014815   19.692146   19.782067
  27 C     6.0000    0    12.011   21.115433   15.458292   20.380562
  28 H     1.0000    0     1.008   20.065859   15.699130   22.113418
  29 C     6.0000    0    12.011   23.679861   15.602165   20.364261
  30 H     1.0000    0     1.008   24.690665   16.215113   22.019786
  31 C     6.0000    0    12.011   24.996545   15.401436   18.098142
  32 C     6.0000    0    12.011   23.725988   14.189303   15.964403
  33 H     1.0000    0     1.008   24.903402   13.583276   14.405804
  34 C     6.0000    0    12.011   21.260649   13.727539   16.015266
  35 H     1.0000    0     1.008   20.340967   12.736282   14.480025
  36 C     6.0000    0    12.011   19.624434   14.507273   18.169193
  37 H     1.0000    0     1.008   18.419365   16.066607   17.518661
  38 O     8.0000    0    15.999   18.117970   12.437628   18.873067
  39 H     1.0000    0     1.008   16.759533   13.038213   20.086506
  40 C     6.0000    0    12.011   27.896103   15.285881   18.103850
  41 O     8.0000    0    15.999   28.991281   15.499447   20.198619
  42 O     8.0000    0    15.999   28.950563   14.906462   16.057464

--------------------------------
INTERNAL COORDINATES (ANGSTROEM)
--------------------------------
 H      0   0   0     0.000000000000     0.00000000     0.00000000
 C      1   0   0     1.080000000000     0.00000000     0.00000000
 H      2   1   0     1.096448529814   107.32603432     0.00000000
 H      2   1   3     1.092421400820   109.79833532   245.27531317
 C      2   1   3     1.512663743571   119.44660177   122.73399127
 H      5   2   1     1.093183321787   107.13449958   180.62612415
 H      5   2   1     1.093996053434   109.37970391    65.32075739
 C      5   2   1     1.518435233514   113.25351711   300.26635824
 H      8   5   2     1.091081910865   111.30017402    92.40041097
 H      8   5   2     1.086987692355   108.53919921   335.55141725
 N      8   5   2     1.448914818633   115.41618744   218.30185926
 H     11   8   5     1.025947997303   115.41562505   115.25633452
 C     11   8   5     1.318664788738   125.02881477   274.17986078
 N     13  11   8     1.348006175560   120.39635183    19.39907220
 H     14  13  11     1.003142968605   118.19748801    31.38115571
 H     14  13  11     1.011854400440   114.67574424   175.71669594
 N     13  11   8     1.313050261568   120.52484943   201.20789603
 H     17  13  11     1.015294719465   118.07820844   177.21687684
 H     17  13  11     1.019273459612   120.75178190   358.57115804
 C     19  17  13     3.902581630946   172.40305956   110.02706375
 H     20  19  17     1.079112339413    84.61791132    61.06841099
 H     20  19  17     1.080593508922   144.51735622   291.39221019
 C     20  19  17     1.389325793149    31.35260625   238.93066473
 C     23  20  19     1.538434423720   122.89336197   157.61499027
 O     24  23  20     1.254361513696   120.16828850    11.23887984
 O     24  23  20     1.245463755758   117.35713291   193.16493720
 O     23  20  19     1.255309826448   120.97854147   335.28631293
 C     27  23  20     2.263359623393   107.19244245   287.66510005
 H     28  27  23     1.079625330372    89.42104567   183.38284855
 C     28  27  23     1.359198371541    88.11761873    62.51611924
 H     30  28  27     1.076480998326   120.51833087    79.56009865
 C     30  28  27     1.390965951763   120.08701570   271.11261887
 C     32  30  28     1.462332499764   117.96048262   339.05519244
 H     33  32  30     1.082268328448   116.98224772   196.35331508
 C     33  32  30     1.327560773103   121.12516207    12.55442927
 H     35  33  32     1.082600775656   121.04671694   183.46426269
 C     35  33  32     1.489667783190   122.39231521     2.81251590
 H     37  35  33     1.098206053949   107.80521778   109.03150719
 O     37  35  33     1.404893288813   108.46612208   227.91515081
 H     39  37  35     1.014929216521   108.99757457   191.32228620
 C     32  30  28     1.535600960876   120.12339468   186.37432242
 O     41  32  30     1.255955162839   117.33693715   356.73412477
 O     41  32  30     1.234644369937   117.15116258   174.39021009

---------------------------
INTERNAL COORDINATES (A.U.)
---------------------------
 H      0   0   0     0.000000000000     0.00000000     0.00000000
 C      1   0   0     2.040904224635     0.00000000     0.00000000
 H      2   1   0     2.071987441289   107.32603432     0.00000000
 H      2   1   3     2.064377270384   109.79833532   245.27531317
 C      2   1   3     2.858520208061   119.44660177   122.73399127
 H      5   2   1     2.065817092348   107.13449958   180.62612415
 H      5   2   1     2.067352932582   109.37970391    65.32075739
 C      5   2   1     2.869426743438   113.25351711   300.26635824
 H      8   5   2     2.061846001210   111.30017402    92.40041097
 H      8   5   2     2.054109049494   108.53919921   335.55141725
 N      8   5   2     2.738052198596   115.41618744   218.30185926
 H     11   8   5     1.938760742548   115.41562505   115.25633452
 C     11   8   5     2.491915313160   125.02881477   274.17986078
 N     13  11   8     2.547362498644   120.39635183    19.39907220
 H     14  13  11     1.895665483833   118.19748801    31.38115571
 H     14  13  11     1.912127704235   114.67574424   175.71669594
 N     13  11   8     2.481305394438   120.52484943   201.20789603
 H     17  13  11     1.918628965005   118.07820844   177.21687684
 H     17  13  11     1.926147694241   120.75178190   358.57115804
 C     19  17  13     7.374810497760   172.40305956   110.02706375
 H     20  19  17     2.039226789226    84.61791132    61.06841099
 H     20  19  17     2.042025793956   144.51735622   291.39221019
 C     20  19  17     2.625445259844    31.35260625   238.93066473
 C     23  20  19     2.907219735827   122.89336197   157.61499027
 O     24  23  20     2.370399733816   120.16828850    11.23887984
 O     24  23  20     2.353585408107   117.35713291   193.16493720
 O     23  20  19     2.372191785208   120.97854147   335.28631293
 C     27  23  20     4.277129830788   107.19244245   287.66510005
 H     28  27  23     2.040196201647    89.42104567   183.38284855
 C     28  27  23     2.568512683885    88.11761873    62.51611924
 H     30  28  27     2.034254275205   120.51833087    79.56009865
 C     30  28  27     2.628544710441   120.08701570   271.11261887
 C     32  30  28     2.763407941286   117.96048262   339.05519244
 H     33  32  30     2.045190744184   116.98224772   196.35331508
 C     33  32  30     2.508726287302   121.12516207    12.55442927
 H     35  33  32     2.045818978361   121.04671694   183.46426269
 C     35  33  32     2.815064140755   122.39231521     2.81251590
 H     37  35  33     2.075308680578   107.80521778   109.03150719
 O     37  35  33     2.654863563241   108.46612208   227.91515081
 H     39  37  35     1.917938264540   108.99757457   191.32228620
 C     32  30  28     2.901865267041   120.12339468   186.37432242
 O     41  32  30     2.373411294249   117.33693715   356.73412477
 O     41  32  30     2.333139731969   117.15116258   174.39021009

---------------------
BASIS SET INFORMATION
---------------------
There are 4 groups of distinct atoms

 Group   1 Type H   : 6s3p2d1f contracted to 4s3p2d1f pattern {3111/111/11/1}
 Group   2 Type C   : 21s6p3d2f1g contracted to 5s4p3d2f1g pattern {99111/3111/111/11/1}
 Group   3 Type N   : 21s6p3d2f1g contracted to 5s4p3d2f1g pattern {99111/3111/111/11/1}
 Group   4 Type O   : 21s6p3d2f1g contracted to 5s4p3d2f1g pattern {99111/3111/111/11/1}

Atom   0H    basis set group =>   1
Atom   1C    basis set group =>   2
Atom   2H    basis set group =>   1
Atom   3H    basis set group =>   1
Atom   4C    basis set group =>   2
Atom   5H    basis set group =>   1
Atom   6H    basis set group =>   1
Atom   7C    basis set group =>   2
Atom   8H    basis set group =>   1
Atom   9H    basis set group =>   1
Atom  10N    basis set group =>   3
Atom  11H    basis set group =>   1
Atom  12C    basis set group =>   2
Atom  13N    basis set group =>   3
Atom  14H    basis set group =>   1
Atom  15H    basis set group =>   1
Atom  16N    basis set group =>   3
Atom  17H    basis set group =>   1
Atom  18H    basis set group =>   1
Atom  19C    basis set group =>   2
Atom  20H    basis set group =>   1
Atom  21H    basis set group =>   1
Atom  22C    basis set group =>   2
Atom  23C    basis set group =>   2
Atom  24O    basis set group =>   4
Atom  25O    basis set group =>   4
Atom  26O    basis set group =>   4
Atom  27C    basis set group =>   2
Atom  28H    basis set group =>   1
Atom  29C    basis set group =>   2
Atom  30H    basis set group =>   1
Atom  31C    basis set group =>   2
Atom  32C    basis set group =>   2
Atom  33H    basis set group =>   1
Atom  34C    basis set group =>   2
Atom  35H    basis set group =>   1
Atom  36C    basis set group =>   2
Atom  37H    basis set group =>   1
Atom  38O    basis set group =>   4
Atom  39H    basis set group =>   1
Atom  40C    basis set group =>   2
Atom  41O    basis set group =>   4
Atom  42O    basis set group =>   4
---------------------------------
AUXILIARY/C BASIS SET INFORMATION
---------------------------------
There are 4 groups of distinct atoms

 Group   1 Type H   : 5s4p3d2f1g contracted to 5s4p3d2f1g pattern {11111/1111/111/11/1}
 Group   2 Type C   : 8s7p6d5f3g1h contracted to 8s7p6d5f3g1h pattern {11111111/1111111/111111/11111/111/1}
 Group   3 Type N   : 8s7p6d5f3g1h contracted to 8s7p6d5f3g1h pattern {11111111/1111111/111111/11111/111/1}
 Group   4 Type O   : 8s7p6d5f3g1h contracted to 8s7p6d5f3g1h pattern {11111111/1111111/111111/11111/111/1}

Atom   0H    basis set group =>   1
Atom   1C    basis set group =>   2
Atom   2H    basis set group =>   1
Atom   3H    basis set group =>   1
Atom   4C    basis set group =>   2
Atom   5H    basis set group =>   1
Atom   6H    basis set group =>   1
Atom   7C    basis set group =>   2
Atom   8H    basis set group =>   1
Atom   9H    basis set group =>   1
Atom  10N    basis set group =>   3
Atom  11H    basis set group =>   1
Atom  12C    basis set group =>   2
Atom  13N    basis set group =>   3
Atom  14H    basis set group =>   1
Atom  15H    basis set group =>   1
Atom  16N    basis set group =>   3
Atom  17H    basis set group =>   1
Atom  18H    basis set group =>   1
Atom  19C    basis set group =>   2
Atom  20H    basis set group =>   1
Atom  21H    basis set group =>   1
Atom  22C    basis set group =>   2
Atom  23C    basis set group =>   2
Atom  24O    basis set group =>   4
Atom  25O    basis set group =>   4
Atom  26O    basis set group =>   4
Atom  27C    basis set group =>   2
Atom  28H    basis set group =>   1
Atom  29C    basis set group =>   2
Atom  30H    basis set group =>   1
Atom  31C    basis set group =>   2
Atom  32C    basis set group =>   2
Atom  33H    basis set group =>   1
Atom  34C    basis set group =>   2
Atom  35H    basis set group =>   1
Atom  36C    basis set group =>   2
Atom  37H    basis set group =>   1
Atom  38O    basis set group =>   4
Atom  39H    basis set group =>   1
Atom  40C    basis set group =>   2
Atom  41O    basis set group =>   4
Atom  42O    basis set group =>   4


           ************************************************************
           *        Program running with 32 parallel MPI-processes    *
           *              working on a common directory               *
           ************************************************************
------------------------------------------------------------------------------
                           ORCA GTO INTEGRAL CALCULATION
------------------------------------------------------------------------------
------------------------------------------------------------------------------
                   ___                                                        
                  /   \      - P O W E R E D   B Y -                         
                 /     \                                                     
                 |  |  |   _    _      __       _____    __    __             
                 |  |  |  | |  | |    /  \     |  _  \  |  |  /  |          
                  \  \/   | |  | |   /    \    | | | |  |  | /  /          
                 / \  \   | |__| |  /  /\  \   | |_| |  |  |/  /          
                |  |  |   |  __  | /  /__\  \  |    /   |      \           
                |  |  |   | |  | | |   __   |  |    \   |  |\   \          
                \     /   | |  | | |  |  |  |  | |\  \  |  | \   \       
                 \___/    |_|  |_| |__|  |__|  |_| \__\ |__|  \__/        
                                                                              
                      - O R C A' S   B I G   F R I E N D -                    
                                      &                                       
                       - I N T E G R A L  F E E D E R -                       
                                                                              
 v1 FN, 2020, v2 2021                                                         
------------------------------------------------------------------------------


Reading SHARK input file input.SHARKINP.tmp ... ok
----------------------
SHARK INTEGRAL PACKAGE
----------------------

Number of atoms                             ...     43
Number of basis functions                   ...   2026
Number of shells                            ...    706
Maximum angular momentum                    ...      4
Integral batch strategy                     ... SHARK/LIBINT Hybrid
RI-J (if used) integral strategy            ... SPLIT-RIJ (Revised 2003 algorithm where possible)
Printlevel                                  ...      1
Contraction scheme used                     ... PARTIAL GENERAL contraction
Coulomb Range Separation                    ... NOT USED
Exchange Range Separation                   ... NOT USED
Finite Nucleus Model                        ... NOT USED
Auxiliary Coulomb fitting basis             ... NOT available
Auxiliary J/K fitting basis                 ... NOT available
Auxiliary Correlation fitting basis         ... AVAILABLE
   # of basis functions in Aux-C            ...   4136
   # of shells in Aux-C                     ...    990
   Maximum angular momentum in Aux-C        ...      5
Auxiliary 'external' fitting basis          ... NOT available
Integral threshold                          ...     2.500000e-11
Primitive cut-off                           ...     2.500000e-12
Primitive pair pre-selection threshold      ...     2.500000e-12

Calculating pre-screening integrals         ... done (  0.4 sec) Dimension = 706
Calculating pre-screening integrals (ORCA)  ... done (  0.7 sec) Dimension = 545
Organizing shell pair data                  ... done (  4.6 sec)
Shell pair information
Total number of shell pairs                 ...    249571
Shell pairs after pre-screening             ...    112669
Total number of primitive shell pairs       ...    314157
Primitive shell pairs kept                  ...    127552
          la=0 lb=0:  23641 shell pairs
          la=1 lb=0:  26788 shell pairs
          la=1 lb=1:   7083 shell pairs
          la=2 lb=0:  16616 shell pairs
          la=2 lb=1:   9258 shell pairs
          la=2 lb=2:   3067 shell pairs
          la=3 lb=0:   9297 shell pairs
          la=3 lb=1:   5344 shell pairs
          la=3 lb=2:   3413 shell pairs
          la=3 lb=3:    997 shell pairs
          la=4 lb=0:   3275 shell pairs
          la=4 lb=1:   1879 shell pairs
          la=4 lb=2:   1195 shell pairs
          la=4 lb=3:    683 shell pairs
          la=4 lb=4:    133 shell pairs

Calculating one electron integrals          ... done (  2.6 sec)
Calculating RI/C V-Matrix + Cholesky decomp.... done (  1.1 sec)
Calculating Nuclear repulsion               ... done (  0.0 sec) ENN=   2012.844225636200 Eh

SHARK setup successfully completed in  12.9 seconds

Maximum memory used throughout the entire GTOINT-calculation: 173.7 MB


           ************************************************************
           *        Program running with 32 parallel MPI-processes    *
           *              working on a common directory               *
           ************************************************************
-------------------------------------------------------------------------------
                                 ORCA SCF
-------------------------------------------------------------------------------

------------
SCF SETTINGS
------------
Hamiltonian:
 Ab initio Hamiltonian  Method          .... Hartree-Fock(GTOs)


General Settings:
 Integral files         IntName         .... input
 Hartree-Fock type      HFTyp           .... RHF
 Total Charge           Charge          ....   -1
 Multiplicity           Mult            ....    1
 Number of Electrons    NEL             ....  174
 Basis Dimension        Dim             .... 1865
 Nuclear Repulsion      ENuc            ....   2012.8442256362 Eh

Convergence Acceleration:
 DIIS                   CNVDIIS         .... on
   Start iteration      DIISMaxIt       ....    12
   Startup error        DIISStart       ....  0.200000
   # of expansion vecs  DIISMaxEq       ....     5
   Bias factor          DIISBfac        ....   1.050
   Max. coefficient     DIISMaxC        ....  10.000
 Trust-Rad. Augm. Hess. CNVTRAH         .... auto
   Auto Start mean grad. ratio tolernc. ....  1.125000
   Auto Start start iteration           ....    20
   Auto Start num. interpolation iter.  ....    10
   Max. Number of Micro iterations      ....    16
   Max. Number of Macro iterations      .... Maxiter - #DIIS iter
   Number of Davidson start vectors     ....     2
   Converg. threshold I  (grad. norm)   ....   1.000e-05
   Converg. threshold II (energy diff.) ....   1.000e-08
   Grad. Scal. Fac. for Micro threshold ....   0.100
   Minimum threshold for Micro iter.    ....   0.010
   NR start threshold (gradient norm)   ....   0.001
   Initial trust radius                 ....   0.400
   Minimum AH scaling param. (alpha)    ....   1.000
   Maximum AH scaling param. (alpha)    .... 1000.000
   Orbital update algorithm             .... Taylor
   White noise on init. David. guess    .... on
   Maximum white noise                  ....   0.010
   Quad. conv. algorithm                .... NR
 SOSCF                  CNVSOSCF        .... on
   Start iteration      SOSCFMaxIt      ....   150
   Startup grad/error   SOSCFStart      ....  0.003300
 Level Shifting         CNVShift        .... on
   Level shift para.    LevelShift      ....    0.2500
   Turn off err/grad.   ShiftErr        ....    0.0010
 Zerner damping         CNVZerner       .... off
 Static damping         CNVDamp         .... on
   Fraction old density DampFac         ....    0.7000
   Max. Damping (<1)    DampMax         ....    0.9800
   Min. Damping (>=0)   DampMin         ....    0.0000
   Turn off err/grad.   DampErr         ....    0.1000
 Fernandez-Rico         CNVRico         .... off

SCF Procedure:
 Maximum # iterations   MaxIter         ....   125
 SCF integral mode      SCFMode         .... Direct
   Integral package                     .... SHARK and LIBINT hybrid scheme
 Reset frequency        DirectResetFreq ....    20
 Integral Threshold     Thresh          ....  2.500e-11 Eh
 Primitive CutOff       TCut            ....  2.500e-12 Eh

Convergence Tolerance:
 Convergence Check Mode ConvCheckMode   .... Total+1el-Energy
 Convergence forced     ConvForced      .... 1
 Energy Change          TolE            ....  1.000e-08 Eh
 1-El. energy change                    ....  1.000e-05 Eh
 Orbital Gradient       TolG            ....  1.000e-05
 Orbital Rotation angle TolX            ....  1.000e-05
 DIIS Error             TolErr          ....  5.000e-07


Diagonalization of the overlap matrix:
Smallest eigenvalue                        ... 7.165e-06
Time for diagonalization                   ...    0.677 sec
Threshold for overlap eigenvalues          ... 1.000e-08
Number of eigenvalues below threshold      ... 0
Time for construction of square roots      ...    0.547 sec
Total time needed                          ...    1.239 sec

Time for model grid setup =    0.525 sec

------------------------------
INITIAL GUESS: MODEL POTENTIAL
------------------------------
Loading Hartree-Fock densities                     ... done
Calculating cut-offs                               ... done
Initializing the effective Hamiltonian             ... done
Setting up the integral package (SHARK)            ... done
Starting the Coulomb interaction                   ... done (   1.4 sec)
Reading the grid                                   ... done
Mapping shells                                     ... done
Starting the XC term evaluation                    ... done (   0.4 sec)
Transforming the Hamiltonian                       ... done (   0.3 sec)
Diagonalizing the Hamiltonian                      ... done (   0.7 sec)
Back transforming the eigenvectors                 ... done (   0.4 sec)
Now organizing SCF variables                       ... done
                      ------------------
                      INITIAL GUESS DONE (   4.7 sec)
                      ------------------
--------------
SCF ITERATIONS
--------------
ITER       Energy         Delta-E        Max-DP      RMS-DP      [F,P]     Damp
               ***  Starting incremental Fock matrix formation  ***
  0  -1153.5266028327   0.000000000000 0.20797267  0.00046035  0.3840949 0.7000
  1  -1153.9465119472  -0.419909114498 0.23931133  0.00047089  0.2311746 0.7000
                               ***Turning on DIIS***
  2  -1154.1959468489  -0.249434901770 0.15228434  0.00030946  0.1333902 0.7000
  3  -1157.0080720924  -2.812125243509 0.16239139  0.00048564  0.0793730 0.0000
  4  -1154.6206757121   2.387396380357 0.08650203  0.00013266  0.0086893 0.0000
  5  -1154.7364251116  -0.115749399534 0.03356462  0.00006074  0.0044834 0.0000
                      *** Initiating the SOSCF procedure ***
                           *** Shutting down DIIS ***
                      *** Re-Reading the Fockian *** 
                      *** Removing any level shift *** 
ITER      Energy       Delta-E        Grad      Rot      Max-DP    RMS-DP
  6  -1154.69937106   0.0370540512  0.002608  0.002608  0.021412  0.000034
               *** Restarting incremental Fock matrix formation ***
  7  -1154.71801521  -0.0186441519  0.001627  0.003610  0.011094  0.000022
  8  -1154.71808408  -0.0000688695  0.000598  0.004175  0.014524  0.000024
  9  -1154.71811740  -0.0000333183  0.000120  0.000249  0.003912  0.000007
 10  -1154.71812066  -0.0000032563  0.000080  0.000200  0.001141  0.000003
 11  -1154.71812123  -0.0000005689  0.000036  0.000174  0.000186  0.000001
 12  -1154.71812140  -0.0000001716  0.000012  0.000068  0.000228  0.000001
 13  -1154.71812143  -0.0000000350  0.000006  0.000033  0.000096  0.000000
 14  -1154.71812142   0.0000000116  0.000003  0.000009  0.000016  0.000000
                  ***Gradient check signals convergence***
              ***Rediagonalizing the Fockian in SOSCF/NRSCF***

               *****************************************************
               *                     SUCCESS                       *
               *           SCF CONVERGED AFTER  15 CYCLES          *
               *****************************************************


----------------
TOTAL SCF ENERGY
----------------

Total Energy       :        -1154.71812147 Eh          -31421.47752 eV

Components:
Nuclear Repulsion  :         2012.84422564 Eh           54772.27595 eV
Electronic Energy  :        -3167.56234710 Eh          -86193.75347 eV
One Electron Energy:        -5605.86928815 Eh         -152543.45849 eV
Two Electron Energy:         2438.30694104 Eh           66349.70502 eV

Virial components:
Potential Energy   :        -2308.73386462 Eh          -62823.84236 eV
Kinetic Energy     :         1154.01574315 Eh           31402.36484 eV
Virial Ratio       :            2.00060864


---------------
SCF CONVERGENCE
---------------

  Last Energy change         ...   -4.7740e-08  Tolerance :   1.0000e-08
  Last MAX-Density change    ...    2.1636e-05  Tolerance :   1.0000e-07
  Last RMS-Density change    ...    7.1534e-08  Tolerance :   5.0000e-09
  Last Orbital Gradient      ...    1.0068e-06  Tolerance :   1.0000e-05
  Last Orbital Rotation      ...    4.1893e-06  Tolerance :   1.0000e-05

             **** THE GBW FILE WAS UPDATED (input.gbw) ****
             **** DENSITY input.scfp WAS UPDATED ****
             **** ENERGY FILE WAS UPDATED (input.en.tmp) ****
             **** THE GBW FILE WAS UPDATED (input.gbw) ****
             **** DENSITY input.scfp WAS UPDATED ****
----------------
ORBITAL ENERGIES
----------------

  NO   OCC          E(Eh)            E(eV) 
   0   2.0000     -20.471848      -557.0673 
   1   2.0000     -20.396475      -555.0163 
   2   2.0000     -20.346775      -553.6639 
   3   2.0000     -20.325440      -553.0833 
   4   2.0000     -20.310533      -552.6777 
   5   2.0000     -20.306468      -552.5671 
   6   2.0000     -15.575504      -423.8310 
   7   2.0000     -15.541887      -422.9162 
   8   2.0000     -15.525854      -422.4800 
   9   2.0000     -11.351457      -308.8888 
  10   2.0000     -11.214431      -305.1602 
  11   2.0000     -11.185480      -304.3724 
  12   2.0000     -11.180015      -304.2237 
  13   2.0000     -11.176161      -304.1188 
  14   2.0000     -11.171287      -303.9862 
  15   2.0000     -11.160431      -303.6908 
  16   2.0000     -11.155513      -303.5569 
  17   2.0000     -11.152241      -303.4679 
  18   2.0000     -11.145122      -303.2742 
  19   2.0000     -11.111559      -302.3609 
  20   2.0000     -11.103843      -302.1509 
  21   2.0000     -11.090759      -301.7949 
  22   2.0000     -11.074236      -301.3453 
  23   2.0000      -1.316209       -35.8159 
  24   2.0000      -1.270247       -34.5652 
  25   2.0000      -1.245658       -33.8961 
  26   2.0000      -1.212673       -32.9985 
  27   2.0000      -1.201342       -32.6902 
  28   2.0000      -1.177347       -32.0372 
  29   2.0000      -1.164592       -31.6902 
  30   2.0000      -1.110668       -30.2228 
  31   2.0000      -1.090403       -29.6714 
  32   2.0000      -1.022818       -27.8323 
  33   2.0000      -1.021345       -27.7922 
  34   2.0000      -0.908091       -24.7104 
  35   2.0000      -0.903004       -24.5720 
  36   2.0000      -0.889609       -24.2075 
  37   2.0000      -0.849213       -23.1083 
  38   2.0000      -0.817592       -22.2478 
  39   2.0000      -0.781522       -21.2663 
  40   2.0000      -0.744802       -20.2671 
  41   2.0000      -0.741998       -20.1908 
  42   2.0000      -0.708423       -19.2772 
  43   2.0000      -0.705392       -19.1947 
  44   2.0000      -0.689688       -18.7674 
  45   2.0000      -0.649981       -17.6869 
  46   2.0000      -0.632113       -17.2007 
  47   2.0000      -0.611153       -16.6303 
  48   2.0000      -0.605393       -16.4736 
  49   2.0000      -0.596613       -16.2347 
  50   2.0000      -0.591545       -16.0968 
  51   2.0000      -0.573413       -15.6034 
  52   2.0000      -0.568656       -15.4739 
  53   2.0000      -0.544766       -14.8238 
  54   2.0000      -0.536776       -14.6064 
  55   2.0000      -0.529575       -14.4105 
  56   2.0000      -0.514438       -13.9986 
  57   2.0000      -0.497005       -13.5242 
  58   2.0000      -0.488568       -13.2946 
  59   2.0000      -0.485759       -13.2182 
  60   2.0000      -0.473555       -12.8861 
  61   2.0000      -0.473284       -12.8787 
  62   2.0000      -0.467069       -12.7096 
  63   2.0000      -0.459845       -12.5130 
  64   2.0000      -0.457914       -12.4605 
  65   2.0000      -0.436161       -11.8685 
  66   2.0000      -0.434668       -11.8279 
  67   2.0000      -0.430526       -11.7152 
  68   2.0000      -0.424718       -11.5572 
  69   2.0000      -0.415300       -11.3009 
  70   2.0000      -0.409896       -11.1538 
  71   2.0000      -0.408225       -11.1084 
  72   2.0000      -0.395685       -10.7671 
  73   2.0000      -0.377493       -10.2721 
  74   2.0000      -0.364317        -9.9136 
  75   2.0000      -0.348416        -9.4809 
  76   2.0000      -0.342669        -9.3245 
  77   2.0000      -0.335952        -9.1417 
  78   2.0000      -0.295762        -8.0481 
  79   2.0000      -0.267129        -7.2689 
  80   2.0000      -0.243255        -6.6193 
  81   2.0000      -0.241892        -6.5822 
  82   2.0000      -0.240727        -6.5505 
  83   2.0000      -0.230125        -6.2620 
  84   2.0000      -0.215867        -5.8741 
  85   2.0000      -0.206750        -5.6260 
  86   2.0000      -0.158722        -4.3191 
  87   0.0000       0.122274         3.3273 
  88   0.0000       0.148643         4.0448 
  89   0.0000       0.155532         4.2322 
  90   0.0000       0.172321         4.6891 
  91   0.0000       0.177125         4.8198 
  92   0.0000       0.192792         5.2461 
  93   0.0000       0.199677         5.4335 
  94   0.0000       0.220201         5.9920 
  95   0.0000       0.225305         6.1309 
  96   0.0000       0.237433         6.4609 
  97   0.0000       0.238315         6.4849 
  98   0.0000       0.246864         6.7175 
  99   0.0000       0.251597         6.8463 
 100   0.0000       0.258662         7.0385 
 101   0.0000       0.262990         7.1563 
 102   0.0000       0.267389         7.2760 
 103   0.0000       0.280492         7.6326 
 104   0.0000       0.282976         7.7002 
 105   0.0000       0.295132         8.0310 
 106   0.0000       0.304073         8.2742 
 107   0.0000       0.312356         8.4996 
 108   0.0000       0.319334         8.6895 
 109   0.0000       0.323867         8.8129 
 110   0.0000       0.331404         9.0180 
 111   0.0000       0.335995         9.1429 
 112   0.0000       0.338583         9.2133 
 113   0.0000       0.342143         9.3102 
 114   0.0000       0.353057         9.6072 
 115   0.0000       0.354617         9.6496 
 116   0.0000       0.360612         9.8127 
 117   0.0000       0.361815         9.8455 
 118   0.0000       0.375681        10.2228 
 119   0.0000       0.384857        10.4725 
 120   0.0000       0.389747        10.6055 
 121   0.0000       0.400994        10.9116 
 122   0.0000       0.407836        11.0978 
 123   0.0000       0.411312        11.1924 
 124   0.0000       0.421456        11.4684 
 125   0.0000       0.424024        11.5383 
 126   0.0000       0.432676        11.7737 
 127   0.0000       0.436798        11.8859 
 128   0.0000       0.446194        12.1416 
 129   0.0000       0.452670        12.3178 
 130   0.0000       0.455157        12.3854 
 131   0.0000       0.458956        12.4888 
 132   0.0000       0.464114        12.6292 
 133   0.0000       0.468259        12.7420 
 134   0.0000       0.469852        12.7853 
 135   0.0000       0.474583        12.9141 
 136   0.0000       0.479374        13.0444 
 137   0.0000       0.480768        13.0824 
 138   0.0000       0.487013        13.2523 
 139   0.0000       0.489266        13.3136 
 140   0.0000       0.498048        13.5526 
 141   0.0000       0.500905        13.6303 
 142   0.0000       0.501676        13.6513 
 143   0.0000       0.509620        13.8675 
 144   0.0000       0.514730        14.0065 
 145   0.0000       0.518206        14.1011 
 146   0.0000       0.521360        14.1869 
 147   0.0000       0.524706        14.2780 
 148   0.0000       0.528126        14.3710 
 149   0.0000       0.533748        14.5240 
 150   0.0000       0.535199        14.5635 
 151   0.0000       0.540349        14.7037 
 152   0.0000       0.548103        14.9146 
 153   0.0000       0.550436        14.9781 
 154   0.0000       0.552246        15.0274 
 155   0.0000       0.555228        15.1085 
 156   0.0000       0.562059        15.2944 
 157   0.0000       0.569521        15.4974 
 158   0.0000       0.573812        15.6142 
 159   0.0000       0.574779        15.6405 
 160   0.0000       0.579588        15.7714 
 161   0.0000       0.583304        15.8725 
 162   0.0000       0.588693        16.0192 
 163   0.0000       0.591831        16.1045 
 164   0.0000       0.596422        16.2295 
 165   0.0000       0.600354        16.3365 
 166   0.0000       0.604291        16.4436 
 167   0.0000       0.609954        16.5977 
 168   0.0000       0.614418        16.7192 
 169   0.0000       0.615247        16.7417 
 170   0.0000       0.619247        16.8506 
 171   0.0000       0.622311        16.9340 
 172   0.0000       0.624223        16.9860 
 173   0.0000       0.628430        17.1004 
 174   0.0000       0.631413        17.1816 
 175   0.0000       0.639094        17.3906 
 176   0.0000       0.640256        17.4223 
 177   0.0000       0.648722        17.6526 
 178   0.0000       0.650597        17.7036 
 179   0.0000       0.653494        17.7825 
 180   0.0000       0.659843        17.9552 
 181   0.0000       0.660914        17.9844 
 182   0.0000       0.670111        18.2346 
 183   0.0000       0.673277        18.3208 
 184   0.0000       0.679704        18.4957 
 185   0.0000       0.685654        18.6576 
 186   0.0000       0.689122        18.7520 
 187   0.0000       0.691305        18.8114 
 188   0.0000       0.695754        18.9324 
 189   0.0000       0.709491        19.3062 
 190   0.0000       0.709888        19.3170 
 191   0.0000       0.724484        19.7142 
 192   0.0000       0.729283        19.8448 
 193   0.0000       0.732628        19.9358 
 194   0.0000       0.736372        20.0377 
 195   0.0000       0.740036        20.1374 
 196   0.0000       0.745751        20.2929 
 197   0.0000       0.751603        20.4522 
 198   0.0000       0.755450        20.5568 
 199   0.0000       0.756953        20.5978 
 200   0.0000       0.766216        20.8498 
 201   0.0000       0.773127        21.0379 
 202   0.0000       0.777665        21.1613 
 203   0.0000       0.788512        21.4565 
 204   0.0000       0.789124        21.4732 
 205   0.0000       0.794117        21.6090 
 206   0.0000       0.802806        21.8455 
 207   0.0000       0.804472        21.8908 
 208   0.0000       0.806155        21.9366 
 209   0.0000       0.810341        22.0505 
 210   0.0000       0.815963        22.2035 
 211   0.0000       0.823658        22.4129 
 212   0.0000       0.827610        22.5204 
 213   0.0000       0.831788        22.6341 
 214   0.0000       0.834952        22.7202 
 215   0.0000       0.836446        22.7608 
 216   0.0000       0.838548        22.8181 
 217   0.0000       0.842144        22.9159 
 218   0.0000       0.850301        23.1379 
 219   0.0000       0.858016        23.3478 
 220   0.0000       0.858830        23.3700 
 221   0.0000       0.864958        23.5367 
 222   0.0000       0.868456        23.6319 
 223   0.0000       0.874263        23.7899 
 224   0.0000       0.877209        23.8701 
 225   0.0000       0.882649        24.0181 
 226   0.0000       0.886168        24.1139 
 227   0.0000       0.899903        24.4876 
 228   0.0000       0.901301        24.5256 
 229   0.0000       0.903524        24.5861 
 230   0.0000       0.909325        24.7440 
 231   0.0000       0.917738        24.9729 
 232   0.0000       0.920400        25.0453 
 233   0.0000       0.925064        25.1723 
 234   0.0000       0.926773        25.2188 
 235   0.0000       0.932113        25.3641 
 236   0.0000       0.935191        25.4478 
 237   0.0000       0.941560        25.6211 
 238   0.0000       0.944257        25.6945 
 239   0.0000       0.946522        25.7562 
 240   0.0000       0.956690        26.0328 
 241   0.0000       0.957858        26.0646 
 242   0.0000       0.962079        26.1795 
 243   0.0000       0.966613        26.3029 
 244   0.0000       0.969724        26.3875 
 245   0.0000       0.974894        26.5282 
 246   0.0000       0.976275        26.5658 
 247   0.0000       0.983087        26.7511 
 248   0.0000       0.988607        26.9014 
 249   0.0000       0.990352        26.9488 
 250   0.0000       0.992350        27.0032 
 251   0.0000       0.994430        27.0598 
 252   0.0000       1.001129        27.2421 
 253   0.0000       1.009400        27.4672 
 254   0.0000       1.015278        27.6271 
 255   0.0000       1.018199        27.7066 
 256   0.0000       1.020956        27.7816 
 257   0.0000       1.023491        27.8506 
 258   0.0000       1.035148        28.1678 
 259   0.0000       1.042250        28.3611 
 260   0.0000       1.044667        28.4268 
 261   0.0000       1.046391        28.4738 
 262   0.0000       1.054548        28.6957 
 263   0.0000       1.059541        28.8316 
 264   0.0000       1.061398        28.8821 
 265   0.0000       1.068578        29.0775 
 266   0.0000       1.069437        29.1009 
 267   0.0000       1.072896        29.1950 
 268   0.0000       1.078094        29.3364 
 269   0.0000       1.080666        29.4064 
 270   0.0000       1.083682        29.4885 
 271   0.0000       1.086657        29.5694 
 272   0.0000       1.097765        29.8717 
 273   0.0000       1.101463        29.9723 
 274   0.0000       1.104759        30.0620 
 275   0.0000       1.110940        30.2302 
 276   0.0000       1.111992        30.2588 
 277   0.0000       1.121637        30.5213 
 278   0.0000       1.124758        30.6062 
 279   0.0000       1.126850        30.6632 
 280   0.0000       1.134061        30.8594 
 281   0.0000       1.135656        30.9028 
 282   0.0000       1.145420        31.1685 
 283   0.0000       1.149530        31.2803 
 284   0.0000       1.153793        31.3963 
 285   0.0000       1.157779        31.5048 
 286   0.0000       1.159137        31.5417 
 287   0.0000       1.167222        31.7617 
 288   0.0000       1.170786        31.8587 
 289   0.0000       1.172591        31.9078 
 290   0.0000       1.174411        31.9573 
 291   0.0000       1.180865        32.1330 
 292   0.0000       1.185993        32.2725 
 293   0.0000       1.188743        32.3474 
 294   0.0000       1.197978        32.5987 
 295   0.0000       1.199000        32.6264 
 296   0.0000       1.201436        32.6927 
 297   0.0000       1.206405        32.8280 
 298   0.0000       1.211971        32.9794 
 299   0.0000       1.214330        33.0436 
 300   0.0000       1.220731        33.2178 
 301   0.0000       1.226299        33.3693 
 302   0.0000       1.229052        33.4442 
 303   0.0000       1.230832        33.4927 
 304   0.0000       1.232549        33.5394 
 305   0.0000       1.235142        33.6099 
 306   0.0000       1.239798        33.7366 
 307   0.0000       1.243173        33.8285 
 308   0.0000       1.255252        34.1571 
 309   0.0000       1.261911        34.3384 
 310   0.0000       1.265350        34.4319 
 311   0.0000       1.270434        34.5703 
 312   0.0000       1.274220        34.6733 
 313   0.0000       1.280127        34.8340 
 314   0.0000       1.280669        34.8488 
 315   0.0000       1.285023        34.9672 
 316   0.0000       1.290306        35.1110 
 317   0.0000       1.291483        35.1430 
 318   0.0000       1.297097        35.2958 
 319   0.0000       1.305990        35.5378 
 320   0.0000       1.307102        35.5681 
 321   0.0000       1.313048        35.7298 
 322   0.0000       1.318923        35.8897 
 323   0.0000       1.323249        36.0074 
 324   0.0000       1.326645        36.0999 
 325   0.0000       1.329810        36.1860 
 326   0.0000       1.338527        36.4232 
 327   0.0000       1.343307        36.5533 
 328   0.0000       1.346416        36.6378 
 329   0.0000       1.354262        36.8514 
 330   0.0000       1.356654        36.9164 
 331   0.0000       1.363951        37.1150 
 332   0.0000       1.365142        37.1474 
 333   0.0000       1.371839        37.3296 
 334   0.0000       1.375826        37.4381 
 335   0.0000       1.379545        37.5393 
 336   0.0000       1.383386        37.6439 
 337   0.0000       1.387633        37.7594 
 338   0.0000       1.392775        37.8993 
 339   0.0000       1.398935        38.0669 
 340   0.0000       1.402309        38.1588 
 341   0.0000       1.407743        38.3066 
 342   0.0000       1.413756        38.4702 
 343   0.0000       1.423737        38.7419 
 344   0.0000       1.432309        38.9751 
 345   0.0000       1.435779        39.0695 
 346   0.0000       1.439327        39.1661 
 347   0.0000       1.439848        39.1803 
 348   0.0000       1.443586        39.2820 
 349   0.0000       1.449605        39.4458 
 350   0.0000       1.455868        39.6162 
 351   0.0000       1.464028        39.8382 
 352   0.0000       1.465446        39.8768 
 353   0.0000       1.477717        40.2107 
 354   0.0000       1.479420        40.2571 
 355   0.0000       1.488544        40.5053 
 356   0.0000       1.491738        40.5922 
 357   0.0000       1.498809        40.7847 
 358   0.0000       1.505466        40.9658 
 359   0.0000       1.516709        41.2717 
 360   0.0000       1.518000        41.3069 
 361   0.0000       1.531979        41.6873 
 362   0.0000       1.534872        41.7660 
 363   0.0000       1.548720        42.1428 
 364   0.0000       1.550260        42.1847 
 365   0.0000       1.553650        42.2770 
 366   0.0000       1.559648        42.4402 
 367   0.0000       1.577733        42.9323 
 368   0.0000       1.587155        43.1887 
 369   0.0000       1.595345        43.4115 
 370   0.0000       1.605791        43.6958 
 371   0.0000       1.613154        43.8961 
 372   0.0000       1.614722        43.9388 
 373   0.0000       1.622012        44.1372 
 374   0.0000       1.625681        44.2370 
 375   0.0000       1.635104        44.4934 
 376   0.0000       1.642803        44.7029 
 377   0.0000       1.645672        44.7810 
 378   0.0000       1.650851        44.9219 
 379   0.0000       1.654734        45.0276 
 380   0.0000       1.664093        45.2823 
 381   0.0000       1.673556        45.5398 
 382   0.0000       1.676727        45.6261 
 383   0.0000       1.682254        45.7765 
 384   0.0000       1.689779        45.9812 
 385   0.0000       1.694896        46.1205 
 386   0.0000       1.697649        46.1954 
 387   0.0000       1.704246        46.3749 
 388   0.0000       1.711479        46.5717 
 389   0.0000       1.721552        46.8458 
 390   0.0000       1.729308        47.0569 
 391   0.0000       1.739017        47.3210 
 392   0.0000       1.740121        47.3511 
 393   0.0000       1.753217        47.7075 
 394   0.0000       1.756469        47.7960 
 395   0.0000       1.761255        47.9262 
 396   0.0000       1.766549        48.0702 
 397   0.0000       1.771618        48.2082 
 398   0.0000       1.780116        48.4394 
 399   0.0000       1.787544        48.6415 
 400   0.0000       1.791565        48.7510 
 401   0.0000       1.797504        48.9126 
 402   0.0000       1.802154        49.0391 
 403   0.0000       1.810517        49.2667 
 404   0.0000       1.813428        49.3459 
 405   0.0000       1.817890        49.4673 
 406   0.0000       1.827189        49.7204 
 407   0.0000       1.839171        50.0464 
 408   0.0000       1.843376        50.1608 
 409   0.0000       1.850511        50.3550 
 410   0.0000       1.868295        50.8389 
 411   0.0000       1.872024        50.9404 
 412   0.0000       1.873221        50.9729 
 413   0.0000       1.878917        51.1279 
 414   0.0000       1.884824        51.2887 
 415   0.0000       1.888769        51.3960 
 416   0.0000       1.895343        51.5749 
 417   0.0000       1.901187        51.7339 
 418   0.0000       1.907977        51.9187 
 419   0.0000       1.910505        51.9875 
 420   0.0000       1.917341        52.1735 
 421   0.0000       1.926389        52.4197 
 422   0.0000       1.928734        52.4835 
 423   0.0000       1.935375        52.6642 
 424   0.0000       1.942789        52.8660 
 425   0.0000       1.948235        53.0142 
 426   0.0000       1.953503        53.1575 
 427   0.0000       1.963321        53.4247 
 428   0.0000       1.967047        53.5261 
 429   0.0000       1.972484        53.6740 
 430   0.0000       1.978778        53.8453 
 431   0.0000       1.983270        53.9675 
 432   0.0000       1.990455        54.1630 
 433   0.0000       2.001204        54.4555 
 434   0.0000       2.003923        54.5295 
 435   0.0000       2.011539        54.7368 
 436   0.0000       2.012606        54.7658 
 437   0.0000       2.015631        54.8481 
 438   0.0000       2.021797        55.0159 
 439   0.0000       2.027922        55.1826 
 440   0.0000       2.033226        55.3269 
 441   0.0000       2.038055        55.4583 
 442   0.0000       2.046753        55.6950 
 443   0.0000       2.050586        55.7993 
 444   0.0000       2.062593        56.1260 
 445   0.0000       2.065369        56.2016 
 446   0.0000       2.068821        56.2955 
 447   0.0000       2.076036        56.4918 
 448   0.0000       2.080768        56.6206 
 449   0.0000       2.085854        56.7590 
 450   0.0000       2.089244        56.8512 
 451   0.0000       2.093593        56.9696 
 452   0.0000       2.098339        57.0987 
 453   0.0000       2.105219        57.2859 
 454   0.0000       2.108278        57.3692 
 455   0.0000       2.110818        57.4383 
 456   0.0000       2.113074        57.4997 
 457   0.0000       2.116314        57.5878 
 458   0.0000       2.127145        57.8825 
 459   0.0000       2.129513        57.9470 
 460   0.0000       2.135981        58.1230 
 461   0.0000       2.136639        58.1409 
 462   0.0000       2.143178        58.3188 
 463   0.0000       2.146821        58.4180 
 464   0.0000       2.150335        58.5136 
 465   0.0000       2.156957        58.6938 
 466   0.0000       2.161420        58.8152 
 467   0.0000       2.165253        58.9195 
 468   0.0000       2.171188        59.0810 
 469   0.0000       2.175943        59.2104 
 470   0.0000       2.186882        59.5081 
 471   0.0000       2.191600        59.6365 
 472   0.0000       2.192481        59.6604 
 473   0.0000       2.197726        59.8032 
 474   0.0000       2.202700        59.9385 
 475   0.0000       2.207553        60.0706 
 476   0.0000       2.210578        60.1529 
 477   0.0000       2.213638        60.2362 
 478   0.0000       2.221821        60.4588 
 479   0.0000       2.224771        60.5391 
 480   0.0000       2.228881        60.6509 
 481   0.0000       2.233867        60.7866 
 482   0.0000       2.237670        60.8901 
 483   0.0000       2.239680        60.9448 
 484   0.0000       2.242742        61.0281 
 485   0.0000       2.249156        61.2026 
 486   0.0000       2.252561        61.2953 
 487   0.0000       2.260919        61.5227 
 488   0.0000       2.267121        61.6915 
 489   0.0000       2.271563        61.8124 
 490   0.0000       2.276290        61.9410 
 491   0.0000       2.279788        62.0362 
 492   0.0000       2.288691        62.2784 
 493   0.0000       2.292711        62.3878 
 494   0.0000       2.297624        62.5215 
 495   0.0000       2.297685        62.5232 
 496   0.0000       2.304970        62.7214 
 497   0.0000       2.310967        62.8846 
 498   0.0000       2.316179        63.0264 
 499   0.0000       2.317499        63.0624 
 500   0.0000       2.320800        63.1522 
 501   0.0000       2.327126        63.3243 
 502   0.0000       2.330623        63.4195 
 503   0.0000       2.334944        63.5371 
 504   0.0000       2.341627        63.7189 
 505   0.0000       2.344586        63.7994 
 506   0.0000       2.350510        63.9606 
 507   0.0000       2.352458        64.0136 
 508   0.0000       2.355753        64.1033 
 509   0.0000       2.368662        64.4546 
 510   0.0000       2.372089        64.5478 
 511   0.0000       2.374998        64.6270 
 512   0.0000       2.379268        64.7432 
 513   0.0000       2.383536        64.8593 
 514   0.0000       2.386970        64.9528 
 515   0.0000       2.397514        65.2397 
 516   0.0000       2.401309        65.3429 
 517   0.0000       2.403621        65.4058 
 518   0.0000       2.408534        65.5395 
 519   0.0000       2.412450        65.6461 
 520   0.0000       2.417803        65.7918 
 521   0.0000       2.421304        65.8870 
 522   0.0000       2.425473        66.0005 
 523   0.0000       2.432418        66.1895 
 524   0.0000       2.437593        66.3303 
 525   0.0000       2.442593        66.4663 
 526   0.0000       2.446930        66.5844 
 527   0.0000       2.450305        66.6762 
 528   0.0000       2.458927        66.9108 
 529   0.0000       2.464435        67.0607 
 530   0.0000       2.465270        67.0834 
 531   0.0000       2.472313        67.2751 
 532   0.0000       2.477156        67.4068 
 533   0.0000       2.480599        67.5005 
 534   0.0000       2.483521        67.5800 
 535   0.0000       2.489474        67.7420 
 536   0.0000       2.493337        67.8472 
 537   0.0000       2.503638        68.1275 
 538   0.0000       2.508069        68.2480 
 539   0.0000       2.512443        68.3670 
 540   0.0000       2.514432        68.4212 
 541   0.0000       2.518428        68.5299 
 542   0.0000       2.526889        68.7602 
 543   0.0000       2.529149        68.8217 
 544   0.0000       2.533663        68.9445 
 545   0.0000       2.534590        68.9697 
 546   0.0000       2.542362        69.1812 
 547   0.0000       2.544123        69.2291 
 548   0.0000       2.545550        69.2679 
 549   0.0000       2.554549        69.5128 
 550   0.0000       2.557954        69.6055 
 551   0.0000       2.561127        69.6918 
 552   0.0000       2.566568        69.8399 
 553   0.0000       2.572144        69.9916 
 554   0.0000       2.577885        70.1478 
 555   0.0000       2.584566        70.3296 
 556   0.0000       2.587326        70.4047 
 557   0.0000       2.588486        70.4363 
 558   0.0000       2.595380        70.6239 
 559   0.0000       2.599322        70.7311 
 560   0.0000       2.604531        70.8729 
 561   0.0000       2.612447        71.0883 
 562   0.0000       2.619293        71.2746 
 563   0.0000       2.619490        71.2799 
 564   0.0000       2.622074        71.3503 
 565   0.0000       2.626275        71.4646 
 566   0.0000       2.631660        71.6111 
 567   0.0000       2.641720        71.8848 
 568   0.0000       2.643629        71.9368 
 569   0.0000       2.648312        72.0642 
 570   0.0000       2.652033        72.1655 
 571   0.0000       2.656634        72.2907 
 572   0.0000       2.663800        72.4857 
 573   0.0000       2.666033        72.5464 
 574   0.0000       2.670813        72.6765 
 575   0.0000       2.677610        72.8615 
 576   0.0000       2.682211        72.9867 
 577   0.0000       2.685022        73.0632 
 578   0.0000       2.687527        73.1313 
 579   0.0000       2.693946        73.3060 
 580   0.0000       2.697287        73.3969 
 581   0.0000       2.700375        73.4809 
 582   0.0000       2.706661        73.6520 
 583   0.0000       2.711303        73.7783 
 584   0.0000       2.718274        73.9680 
 585   0.0000       2.720223        74.0210 
 586   0.0000       2.725340        74.1603 
 587   0.0000       2.730587        74.3030 
 588   0.0000       2.732882        74.3655 
 589   0.0000       2.738550        74.5197 
 590   0.0000       2.741472        74.5992 
 591   0.0000       2.745006        74.6954 
 592   0.0000       2.750061        74.8330 
 593   0.0000       2.754579        74.9559 
 594   0.0000       2.762403        75.1688 
 595   0.0000       2.766940        75.2923 
 596   0.0000       2.771834        75.4254 
 597   0.0000       2.773079        75.4593 
 598   0.0000       2.778207        75.5989 
 599   0.0000       2.784079        75.7586 
 600   0.0000       2.786960        75.8370 
 601   0.0000       2.791459        75.9595 
 602   0.0000       2.795235        76.0622 
 603   0.0000       2.807001        76.3824 
 604   0.0000       2.809475        76.4497 
 605   0.0000       2.812814        76.5406 
 606   0.0000       2.818521        76.6959 
 607   0.0000       2.828378        76.9641 
 608   0.0000       2.835594        77.1604 
 609   0.0000       2.839703        77.2722 
 610   0.0000       2.841237        77.3140 
 611   0.0000       2.846437        77.4555 
 612   0.0000       2.849023        77.5258 
 613   0.0000       2.852199        77.6123 
 614   0.0000       2.859812        77.8195 
 615   0.0000       2.868085        78.0446 
 616   0.0000       2.870413        78.1079 
 617   0.0000       2.873797        78.2000 
 618   0.0000       2.878766        78.3352 
 619   0.0000       2.889259        78.6207 
 620   0.0000       2.891169        78.6727 
 621   0.0000       2.893747        78.7429 
 622   0.0000       2.895430        78.7887 
 623   0.0000       2.912971        79.2660 
 624   0.0000       2.915305        79.3295 
 625   0.0000       2.917208        79.3813 
 626   0.0000       2.919987        79.4569 
 627   0.0000       2.926583        79.6364 
 628   0.0000       2.928047        79.6762 
 629   0.0000       2.932256        79.7907 
 630   0.0000       2.939121        79.9775 
 631   0.0000       2.946417        80.1761 
 632   0.0000       2.949412        80.2576 
 633   0.0000       2.952573        80.3436 
 634   0.0000       2.959754        80.5390 
 635   0.0000       2.965859        80.7051 
 636   0.0000       2.971708        80.8643 
 637   0.0000       2.972622        80.8892 
 638   0.0000       2.980809        81.1119 
 639   0.0000       2.985262        81.2331 
 640   0.0000       2.990610        81.3786 
 641   0.0000       2.994169        81.4755 
 642   0.0000       3.000460        81.6467 
 643   0.0000       3.015015        82.0427 
 644   0.0000       3.016266        82.0768 
 645   0.0000       3.022396        82.2436 
 646   0.0000       3.027797        82.3906 
 647   0.0000       3.029445        82.4354 
 648   0.0000       3.038180        82.6731 
 649   0.0000       3.045146        82.8626 
 650   0.0000       3.050397        83.0055 
 651   0.0000       3.051513        83.0359 
 652   0.0000       3.055089        83.1332 
 653   0.0000       3.059400        83.2505 
 654   0.0000       3.064320        83.3844 
 655   0.0000       3.071009        83.5664 
 656   0.0000       3.079368        83.7939 
 657   0.0000       3.087349        84.0110 
 658   0.0000       3.095354        84.2289 
 659   0.0000       3.100878        84.3792 
 660   0.0000       3.102033        84.4106 
 661   0.0000       3.109201        84.6057 
 662   0.0000       3.110261        84.6345 
 663   0.0000       3.116355        84.8003 
 664   0.0000       3.118336        84.8542 
 665   0.0000       3.122300        84.9621 
 666   0.0000       3.129262        85.1515 
 667   0.0000       3.133629        85.2704 
 668   0.0000       3.136822        85.3573 
 669   0.0000       3.144183        85.5576 
 670   0.0000       3.150519        85.7300 
 671   0.0000       3.156491        85.8925 
 672   0.0000       3.160362        85.9978 
 673   0.0000       3.169022        86.2335 
 674   0.0000       3.175833        86.4188 
 675   0.0000       3.177194        86.4558 
 676   0.0000       3.183368        86.6238 
 677   0.0000       3.188539        86.7646 
 678   0.0000       3.191443        86.8436 
 679   0.0000       3.198150        87.0261 
 680   0.0000       3.208918        87.3191 
 681   0.0000       3.211919        87.4008 
 682   0.0000       3.218841        87.5891 
 683   0.0000       3.223737        87.7223 
 684   0.0000       3.227906        87.8358 
 685   0.0000       3.243718        88.2660 
 686   0.0000       3.246391        88.3388 
 687   0.0000       3.252331        88.5004 
 688   0.0000       3.256225        88.6064 
 689   0.0000       3.261555        88.7514 
 690   0.0000       3.269251        88.9608 
 691   0.0000       3.280066        89.2551 
 692   0.0000       3.282142        89.3116 
 693   0.0000       3.288447        89.4832 
 694   0.0000       3.292042        89.5810 
 695   0.0000       3.296532        89.7032 
 696   0.0000       3.297610        89.7325 
 697   0.0000       3.306577        89.9765 
 698   0.0000       3.312094        90.1266 
 699   0.0000       3.315947        90.2315 
 700   0.0000       3.326232        90.5114 
 701   0.0000       3.328439        90.5714 
 702   0.0000       3.337359        90.8142 
 703   0.0000       3.344150        90.9990 
 704   0.0000       3.350195        91.1634 
 705   0.0000       3.355536        91.3088 
 706   0.0000       3.362471        91.4975 
 707   0.0000       3.365423        91.5778 
 708   0.0000       3.366654        91.6113 
 709   0.0000       3.373600        91.8003 
 710   0.0000       3.378803        91.9419 
 711   0.0000       3.386213        92.1435 
 712   0.0000       3.391896        92.2982 
 713   0.0000       3.401700        92.5650 
 714   0.0000       3.408265        92.7436 
 715   0.0000       3.411979        92.8447 
 716   0.0000       3.415747        92.9472 
 717   0.0000       3.426318        93.2348 
 718   0.0000       3.428896        93.3050 
 719   0.0000       3.432451        93.4017 
 720   0.0000       3.439395        93.5907 
 721   0.0000       3.440680        93.6257 
 722   0.0000       3.444888        93.7402 
 723   0.0000       3.447847        93.8207 
 724   0.0000       3.455213        94.0211 
 725   0.0000       3.460825        94.1738 
 726   0.0000       3.469531        94.4107 
 727   0.0000       3.474845        94.5553 
 728   0.0000       3.486175        94.8637 
 729   0.0000       3.494257        95.0836 
 730   0.0000       3.501135        95.2707 
 731   0.0000       3.504387        95.3592 
 732   0.0000       3.509617        95.5015 
 733   0.0000       3.517240        95.7090 
 734   0.0000       3.528357        96.0115 
 735   0.0000       3.529302        96.0372 
 736   0.0000       3.537753        96.2671 
 737   0.0000       3.540373        96.3384 
 738   0.0000       3.545129        96.4679 
 739   0.0000       3.552419        96.6662 
 740   0.0000       3.556453        96.7760 
 741   0.0000       3.557948        96.8167 
 742   0.0000       3.568778        97.1114 
 743   0.0000       3.576946        97.3337 
 744   0.0000       3.586160        97.5844 
 745   0.0000       3.590533        97.7034 
 746   0.0000       3.593571        97.7861 
 747   0.0000       3.602052        98.0168 
 748   0.0000       3.608662        98.1967 
 749   0.0000       3.610707        98.2523 
 750   0.0000       3.616358        98.4061 
 751   0.0000       3.631847        98.8276 
 752   0.0000       3.640812        99.0715 
 753   0.0000       3.645161        99.1899 
 754   0.0000       3.649924        99.3195 
 755   0.0000       3.658855        99.5625 
 756   0.0000       3.665307        99.7381 
 757   0.0000       3.667276        99.7916 
 758   0.0000       3.676835       100.0518 
 759   0.0000       3.689448       100.3950 
 760   0.0000       3.692038       100.4655 
 761   0.0000       3.695510       100.5599 
 762   0.0000       3.710743       100.9744 
 763   0.0000       3.719460       101.2116 
 764   0.0000       3.721219       101.2595 
 765   0.0000       3.724202       101.3407 
 766   0.0000       3.730990       101.5254 
 767   0.0000       3.742024       101.8257 
 768   0.0000       3.746848       101.9569 
 769   0.0000       3.750983       102.0694 
 770   0.0000       3.761154       102.3462 
 771   0.0000       3.767981       102.5320 
 772   0.0000       3.782008       102.9137 
 773   0.0000       3.786959       103.0484 
 774   0.0000       3.790741       103.1513 
 775   0.0000       3.796215       103.3003 
 776   0.0000       3.797238       103.3281 
 777   0.0000       3.800877       103.4271 
 778   0.0000       3.812801       103.7516 
 779   0.0000       3.818523       103.9073 
 780   0.0000       3.821151       103.9788 
 781   0.0000       3.825533       104.0981 
 782   0.0000       3.836314       104.3914 
 783   0.0000       3.837158       104.4144 
 784   0.0000       3.840715       104.5112 
 785   0.0000       3.849649       104.7543 
 786   0.0000       3.860983       105.0627 
 787   0.0000       3.865357       105.1817 
 788   0.0000       3.875538       105.4587 
 789   0.0000       3.882643       105.6521 
 790   0.0000       3.886521       105.7576 
 791   0.0000       3.896184       106.0206 
 792   0.0000       3.900785       106.1458 
 793   0.0000       3.904482       106.2464 
 794   0.0000       3.910803       106.4184 
 795   0.0000       3.916817       106.5820 
 796   0.0000       3.923628       106.7673 
 797   0.0000       3.928060       106.8879 
 798   0.0000       3.930308       106.9491 
 799   0.0000       3.942948       107.2931 
 800   0.0000       3.946452       107.3884 
 801   0.0000       3.956421       107.6597 
 802   0.0000       3.958322       107.7114 
 803   0.0000       3.962066       107.8133 
 804   0.0000       3.974654       108.1558 
 805   0.0000       3.975496       108.1787 
 806   0.0000       3.985803       108.4592 
 807   0.0000       3.992485       108.6410 
 808   0.0000       3.996706       108.7559 
[...]
Spin component scaling                      .... not used

PASS-1: Formation of initial guess LMP2 amplitudes
Initial amplitudes guess done. Entering LMP2 iteration loop:
   Max. no of iterations          ...  50
   Energy convergence tolerance   ...    1.0e-07
   Residual convergence tolerance ...    5.0e-07
   Fock matrix cutoff             ...    1.0e-05 Eh
   DIIS convergence acceleration parameters:
        Max # vectors in DIIS     ... 7
        Start iteration of DIIS   ... 0
        Levelshift                ... 2.000e-01
        Damping factor 1          ... 5.000e-01
        Damping factor 2          ... 1.000e+00
   L-MP2 PNO cut-off              ...   1.0e-09
   L-MP2 PNO cut-off (core)       ...   1.0e-11
                           *** Turning on DIIS ***
LMP2-Iter=   0:  ELMP2= -4.581592178051  DE=   1.1e-01 RMAX=   1.2e-02
LMP2-Iter=   1:  ELMP2= -4.638555605315  DE=   5.7e-02 RMAX=   6.2e-03
LMP2-Iter=   2:  ELMP2= -4.650643261814  DE=   1.2e-02 RMAX=   2.6e-03
LMP2-Iter=   3:  ELMP2= -4.652510166343  DE=   1.9e-03 RMAX=   1.2e-03
LMP2-Iter=   4:  ELMP2= -4.652588450144  DE=   7.8e-05 RMAX=   4.2e-04
LMP2-Iter=   5:  ELMP2= -4.652548265205  DE=   4.0e-05 RMAX=   1.5e-04
LMP2-Iter=   6:  ELMP2= -4.652542998872  DE=   5.3e-06 RMAX=   4.4e-05
LMP2-Iter=   7:  ELMP2= -4.652545598616  DE=   2.6e-06 RMAX=   1.3e-05
LMP2-Iter=   8:  ELMP2= -4.652546784433  DE=   1.2e-06 RMAX=   3.2e-06
LMP2-Iter=   9:  ELMP2= -4.652546666888  DE=   1.2e-07 RMAX=   9.7e-07
LMP2-Iter=  10:  ELMP2= -4.652546607067  DE=   6.0e-08 RMAX=   2.0e-07
LMP2-Iter=  11:  ELMP2= -4.652546543007  DE=   6.4e-08 RMAX=   5.3e-08 => CONVERGED
PASS-2: Formation of Pair natural orbitals
   .... Finished loop over pairs

 PNO Occupation Number Statistics: 
  | Av. % of trace(Dij) retained        ...  97.438864783179
  | sigma^2 in % of trace(Dij) retained ...   1.45e+01
  | Av. % of trace(Di) retained         ...  99.999502540259
  | sigma^2 in % of trace(Di) retained  ...   2.24e-08
 Distributions of % trace(Dij) recovered:
  |       >= 99.9  ...   237 ( 13.8 % of all pairs)
  |   [60.0, 70.0) ...     1 (  0.1 % of all pairs)
  |   [70.0, 80.0) ...    14 (  0.8 % of all pairs)
  |   [80.0, 90.0) ...    84 (  4.9 % of all pairs)
  |   [90.0, 99.0) ...   818 ( 47.8 % of all pairs)
  |   [99.0, 99.9) ...   558 ( 32.6 % of all pairs)
 Distributions of % trace(Di) recovered :
  |       >= 99.9  ...    64 (100.0 % of all I-pairs )

Making pair pair interaction lists          ... done

                       ===========================
                       1147 OF 1712 PAIRS ARE KEPT
                       ===========================

Total time spent in the initial guess                 ...  6901.016 sec
L-MP2 correlation energy (all non-screened pairs)     ...      -4.652546543007 Eh
L-MP2 PNO error correction                            ...      -0.000352587763 Eh
                                                          --------------------
Initial total L-MP2 energy (non-screened pairs)       ...      -4.652899130770 Eh

Initial PNO correlation energy                        ...      -4.640797033257 Eh
sum of pair energies estimated for screened out pairs ...      -0.000148880532 Eh
sum of MP2 pair energies for pairs that were not kept ...      -0.002592256360 Eh
sum of PNO error estimates for the kept pairs         ...      -0.009955122469 Eh
                                                          --------------------
sum of all corrections                                         -0.012696259361
Initial total correlation energy                               -4.653493292617
Thresholds for map construction and integral transformation for fine MP2 and CCSD(T) calculation:
   TCutMKN   ...     1.0e-03
   TCutDO    ...     5.0e-03
   TCutPairs ...     1.0e-05
   TCutCMO   ...     1.0e-03
   TCutCPAO  ...     1.0e-03

Time for aux screen maps:            0.133
Time for maps after fine MP2:            1.353

PROBLEM (ORCA/DLPNO): not enough memory for MDCI Iterations
        MemNeeded  8346.1 MB > MemAvailable  7715.7 MB
        Will have to batch evaluation of 4-external contributions to sigma vector

-----------------------------
LOCAL RI TRANSFORMATION (IJV)
-----------------------------

Orbital window:      23 to 86
Basis functions:   1865 (545 shells)
Aux. functions:    4136 (990 shells)
Use SHARK:           on

Processing maps (0.0 sec)
Average map sizes:
   Aux shells -> MOs(i)           54.4
   Aux shells -> MOs(j)           64.0
   MOs        -> AO shells       462.8

Calculating integrals (42.3 sec, 110.541 MB)
Sorting integrals (0.4 sec, 110.495 MB)
Total time for the integral transformation: 42.7 sec
--------------------------------
LOCAL RI TRANSFORMATION (VABPAO)
--------------------------------

Number of PAOs:    1865
Basis functions:   1865 (545 shells)
Aux. functions:    4136 (990 shells)
Use SHARK:           on

Processing maps (0.2 sec)
Average map sizes:
   Aux shells -> PAOs           1833.3
   PAOs       -> AO shells       524.4

Calculating integrals (1394.8 sec, 106275.404 MB)
Finished


-------------------------------------
Pair Pair Term precalculation with     
RI-(ij|mn) and (im|jn) transformation  
ON THE FLY                             
-------------------------------------

   IBatch   1 (of   6)              ... done ( 2675.663 sec)
   IBatch   2 (of   6)              ... done ( 2818.860 sec)
   IBatch   3 (of   6)              ... done ( 2552.076 sec)
   IBatch   4 (of   6)              ... done ( 2643.598 sec)
   IBatch   5 (of   6)              ... done ( 4012.295 sec)
   IBatch   6 (of   6)              ... done ( 6243.858 sec)
Total EXT                           ...       20946.386 sec

---------------------
RI-PNO TRANSFORMATION
---------------------

Total Number of PNOs                   ... 45468
Average number of PNOs per pair        ...    39
Maximal number of PNOs per pair        ...   146
   #pairs with  1 -  5 PNOs   :    0
   #pairs with  6 - 10 PNOs   :  203
   #pairs with 11 - 15 PNOs   :  117
   #pairs with 16 - 20 PNOs   :   91
   #pairs with 21 - 25 PNOs   :   64
   #pairs with 26 - 30 PNOs   :   72
   #pairs with 31 - 35 PNOs   :   86
   #pairs with 36 - 40 PNOs   :   65
   #pairs with 41 - 45 PNOs   :   48
   #pairs with 46 - 50 PNOs   :   30
   #pairs with 51 - 55 PNOs   :   42
   #pairs with 56 - 60 PNOs   :   45
   #pairs with 61 - 65 PNOs   :   34
   #pairs with 66 - 70 PNOs   :   26
   #pairs with 71 - 75 PNOs   :   12
   #pairs with 76 - 80 PNOs   :   55
   #pairs with 81 - 85 PNOs   :   49
   #pairs with 86 - 90 PNOs   :   28
   #pairs with 91 - 95 PNOs   :   42
   #pairs with > 96 PNOs      :   38

Generation of (ij|ab)[P] integrals            ... on
Generation of (ia|bc)[P],(ja|bc)[P] integrals ... on
Storage of 3 and 4 external integrals         ... on
Generation of ALL (ka|bc)[P] integrals        ... on
Keep RI integrals in memory                   ... off

Ibatch:  1 (of  1)
Starting 2-4 index PNO integral generation ... done

Timings:
Total PNO integral transformation time     ...       3063.788 sec
Size of the 3-external file                ...      1618 MB
Size of the 4-external file                ...     17214 MB
Size of the IKJL file                      ...         0 MB
Size of the all 3-external file            ...     46382 MB
Size of the 1-external file                ...        60 MB

Making pair/pair overlap matrices          ... done (  566.069 sec)
Size of the pair overlap file              ... 10558 MB
Redoing the guess amplitudes               ... done (    0.261 sec)

-------------------------
FINAL STARTUP INFORMATION
-------------------------

E(0)                                       ...  -1154.718121431
E(L-MP2)                                   ...     -4.652899131
E(L-MP2) including corrections             ...     -4.653493293
Initial E(tot)                             ...  -1159.371614724
<T|T>                                      ...      1.150912211
Number of pairs included                   ... 1147
Total number of pairs                      ... 2080

------------------------------------------------
                  RHF COUPLED CLUSTER ITERATIONS
------------------------------------------------

Number of PNO amplitudes to be optimized   ...      2780842
Number of non-PNO amplitudes               ...   3625992748
Untruncated number of regular amplitudes   ...   6575470720

Iter       E(tot)           E(Corr)          Delta-E          Residual     Time
  0  -1159.192017448     -4.461199758      0.191699373      0.014279992 1868.74
                           *** Turning on DIIS ***
  1  -1159.245777310     -4.514959620     -0.053759862      0.009250544 1822.48
  2  -1159.345564837     -4.614747146     -0.099787526      0.005900110 1896.87
  3  -1159.369154444     -4.638336753     -0.023589607      0.004479224 1923.64
  4  -1159.376267282     -4.645449591     -0.007112838      0.002744624 1850.17
  5  -1159.378978404     -4.648160714     -0.002711123      0.001700373 1816.13
  6  -1159.379677217     -4.648859527     -0.000698813      0.000967820 1827.96
  7  -1159.379945146     -4.649127455     -0.000267929      0.000653039 1837.20
  8  -1159.380031932     -4.649214242     -0.000086786      0.000402906 1829.53
  9  -1159.380022124     -4.649204433      0.000009809      0.000236205 1806.65
 10  -1159.380048179     -4.649230488     -0.000026055      0.000113088 1876.46
 11  -1159.380048459     -4.649230768     -0.000000280      0.000046901 1823.64
 12  -1159.380048152     -4.649230462      0.000000307      0.000020487 1814.33
 13  -1159.380042394     -4.649224703      0.000005759      0.000012289 1817.21
 14  -1159.380038196     -4.649220506      0.000004197      0.000008828 1815.29
               --- The Coupled-Cluster iterations have converged ---

----------------------
COUPLED CLUSTER ENERGY
----------------------

E(0)                                       ...  -1154.718121431
E(CORR)(strong-pairs)                      ...     -4.649220506
E(CORR)(weak-pairs)                        ...     -0.012696259
E(CORR)(corrected)                         ...     -4.661916765
E(TOT)                                     ...  -1159.380038196
Singles Norm <S|S>**1/2                    ...      0.169942138  
T1 diagnostic                              ...      0.015020905  

------------------
LARGEST AMPLITUDES
------------------
  86-> 87  86-> 87       0.066113
  86-> 87  -1-> -1       0.046903
  86-> 88  86-> 88       0.044986
  43-> 87  43-> 87       0.041706
  62-> 87  -1-> -1       0.041359
  56-> 90  56-> 90       0.038457
  52-> 89  52-> 89       0.037401
  78-> 87  78-> 87       0.037278
  62-> 87  62-> 87       0.035641
  65-> 88  65-> 88       0.035516
  66-> 88  66-> 88       0.035361
  47-> 87  47-> 87       0.033469
  72-> 88  72-> 88       0.032365
  51-> 87  51-> 87       0.032142
  39-> 87  39-> 87       0.031745
  58-> 87  58-> 87       0.031468


-------------------------------------------
DLPNO BASED TRIPLES CORRECTION
-------------------------------------------

Singles multiplier          ...  1.000000
TCutTNO                     ... 1.000e-09
TCutMP2Pairs                ... 1.000e-06
TCutDOStrong                ... 1.000e-02
TCutMKNStrong               ... 1.000e-02
TCutDOWeak                  ... 2.000e-02
TCutMKNWeak                 ... 1.000e-01

Fragment selection                          .... not used
Fock matrix occ-virt block is zero --> Setting DT_in_Triples to false.
Number of Triples that are to be computed   ...     19923

 . . . . . . . . .
10% done               (   6697.569 sec)
 . . . . . . . . .
20% done  
30% done               (   7118.445 sec)
 . . . . . . . . .
40% done  
50% done  
60% done  
70% done  
80% done               (  11176.269 sec)
 . . . . . . . . .
90% done               (   3772.543 sec)
Triples timings:
Total time for T0               ... 31787.514 sec
Total time for Iterative (T)    ...     0.000 sec
Total time of overall (T)       ... 33193.908 sec

Triples List generation         ...     0.000 sec
TNO generation                  ...  3021.628 sec
Pair density generation         ...     0.087 sec
Look up tables                  ...     0.001 sec
Generating 3-index integrals    ... 23970.069 sec
  Make 4-ind.int. from 3-ind.int...   378.331 sec
  Projecting amplitudes (D + S) ...  4105.092 sec
  Downprojecting integrals      ...     0.015 sec
  Energy contr. (sum over a,b,c)...    22.794 sec
Fitting ET(->0)                 ...     0.000 sec

Everything after 3-index        ...  4794.757 sec

Timing details:
 TNO integrals                  ... 24334.582 sec
   Reading 3-index integrals    ...  1269.366 sec
   Sorting integrals            ...  1336.779 sec
       Sorting integrals 1      ...     0.012 sec
       Sorting integrals 2      ...  1299.273 sec
       Sorting integrals 3      ...     7.991 sec
       Sorting integrals 4      ...     0.778 sec
       Sorting integrals 5      ...     5.986 sec
       Sorting integrals 6      ...    22.739 sec
   Calculating local VM**-1/2   ...    25.548 sec
   Orthogonal. integrals        ...    39.188 sec
   Multipl. 3-index integrals   ... 21663.700 sec
   All concerning IRIab (w/TNO) ...   279.553 sec

 Calculate W0/W1                ...   288.456 sec
 W 3-ext contribution           ...   194.211 sec
 W 3-int contribution           ...    70.717 sec
 Sorting W                      ...    19.873 sec

 V exchange contribution        ...     5.900 sec

 Timings for Triples without generation
     of 3-index integrals       ...  4794.736 sec
       0 weak pairs             ...  3605.666 sec
       1 weak pair              ...  1189.070 sec
       2 weak pairs             ...     0.000 sec
       3 weak pairs             ...     0.000 sec
  Extra time for extrapolation  ...     0.000 sec

Number of Triples   (0, 1, 2, 3 weak pairs; overall):  12086    7837       0       0  ( 19923)
Number of Atoms     (0, 1, 2, 3 weak pairs; overall):   24.5    23.7     0.0     0.0  (    43)
Number of PAOs      (0, 1, 2, 3 weak pairs; overall): 1118.9  1089.9     0.0     0.0  (  1865)
Number of AuxFcns   (0, 1, 2, 3 weak pairs; overall):  931.0   635.0     0.0     0.0  (  4136)
Number of TNOs      (0, 1, 2, 3 weak pairs         ):  111.9    60.4     0.0     0.0
Aver. Number of NTNO, Atoms, PAOs, AuxFcns / Triples:  19923    91.6    24.2  1107.5   814.6

Triples Correction (T)                     ...     -0.220434687
Final correlation energy                   ...     -4.882351452
E(CCSD)                                    ...  -1159.380038196
E(CCSD(T))                                 ...  -1159.600472883



--------------------------------------------------------------------------------
                                    TIMINGS
--------------------------------------------------------------------------------


Total execution time                   ...    96351.856 sec

Localization of occupied MO's          ...       66.000 sec (  0.1%)
Fock Matrix Formation                  ...      653.333 sec (  0.7%)
Global overlap, Fock, MKN matrices     ...       60.268 sec (  0.1%)
Differential overlap integrals         ...       21.508 sec (  0.0%)
Organizing maps                        ...        3.392 sec (  0.0%)
RI 3-index integral generations        ...     1615.045 sec (  1.7%)
RI-PNO integral transformation         ...    24580.791 sec ( 25.5%)
Initial Guess                          ...     8524.934 sec (  8.8%)
DIIS Solver                            ...       77.250 sec (  0.1%)
State Vector Update                    ...        0.383 sec (  0.0%)
Sigma-vector construction              ...    27599.804 sec ( 28.6%)
  <0|H|D>                              ...        0.003 sec (  0.0% of sigma)
  <D|H|D>(0-ext)                       ...     5256.728 sec ( 19.0% of sigma)
  <D|H|D>(2-ext Fock)                  ...        2.094 sec (  0.0% of sigma)
  <D|H|D>(2-ext)                       ...     2104.112 sec (  7.6% of sigma)
  <D|H|D>(4-ext)                       ...     1371.170 sec (  5.0% of sigma)
  <D|H|D>(4-ext-corr)                  ...     1222.517 sec (  4.4% of sigma)
  CCSD doubles correction              ...      337.310 sec (  1.2% of sigma)
  <S|H|S>                              ...       49.805 sec (  0.2% of sigma)
  <S|H|D>(1-ext)                       ...       24.112 sec (  0.1% of sigma)
  <D|H|S>(1-ext)                       ...        4.496 sec (  0.0% of sigma)
  <S|H|D>(3-ext)                       ...       27.453 sec (  0.1% of sigma)
  CCSD singles correction              ...        0.002 sec (  0.0% of sigma)
  Fock-dressing                        ...     7385.987 sec ( 26.8% of sigma)
  Singles amplitudes                   ...      228.742 sec (  0.8% of sigma)
  (ik|jl)-dressing                     ...     8122.913 sec ( 29.4% of sigma)
  (ij|ab),(ia|jb)-dressing             ...     1437.011 sec (  5.2% of sigma)
  Pair energies                        ...        0.057 sec (  0.0% of sigma)
Total Time for computing (T)           ...    33194.072 sec ( 34.5% of ALL)


Maximum memory used throughout the entire MDCI-calculation: 10144.9 MB

-------------------------   --------------------
FINAL SINGLE POINT ENERGY     -1159.600472883165
-------------------------   --------------------


                            ***************************************
                            *     ORCA property calculations      *
                            ***************************************


  WARNING: The energy has been calculated at the MDCI level but the densities
           used in the property calculations are still SCF densities
           MDCI response densities have not been calculated 
           use %mdci Density linearized end
           or  %mdci Density unrelaxed end
           or  %mdci Density orbopt end

                                    ---------------------
                                    Active property flags
                                    ---------------------
   (+) Dipole Moment


------------------------------------------------------------------------------
                       ORCA ELECTRIC PROPERTIES CALCULATION
------------------------------------------------------------------------------

Dipole Moment Calculation                       ... on
Quadrupole Moment Calculation                   ... off
Polarizability Calculation                      ... off
GBWName                                         ... input.gbw
Electron density                                ... input.scfp
The origin for moment calculation is the CENTER OF MASS  = (19.805471, 18.622155 18.486819)

-------------
DIPOLE MOMENT
-------------
                                X             Y             Z
Electronic contribution:     24.86972      -9.11986      -0.74646
Nuclear contribution   :    -35.01067      12.08354       6.04867
                        -----------------------------------------
Total Dipole Moment    :    -10.14095       2.96367       5.30221
                        -----------------------------------------
Magnitude (a.u.)       :     11.82098
Magnitude (Debye)      :     30.04655



--------------------
Rotational spectrum 
--------------------
 
Rotational constants in cm-1:     0.014918     0.004181     0.004104 
Rotational constants in MHz :   447.227305   125.334340   123.035623 

 Dipole components along the rotational axes: 
x,y,z [a.u.] :   -10.883103     4.118865    -2.080551 
x,y,z [Debye]:   -27.662650    10.469323    -5.288339 

 

Timings for individual modules:

Sum of individual times         ...   101519.753 sec (=1691.996 min)
GTO integral calculation        ...       19.361 sec (=   0.323 min)   0.0 %
SCF iterations                  ...     5139.957 sec (=  85.666 min)   5.1 %
MDCI module                     ...    96360.434 sec (=1606.007 min)  94.9 %
                             ****ORCA TERMINATED NORMALLY****
TOTAL RUN TIME: 1 days 4 hours 12 minutes 7 seconds 658 msec
