Loading orca/5.0.3
  Loading requirement: gcc-runtime/11.3.1-gcc-11.3.1-jw6fhud
    numactl/2.0.14-gcc-11.3.1-tqvsbcd openssh/8.7p1-gcc-11.3.1-ddo4kmk
    libiconv/1.17-gcc-11.3.1-h3jdn2x xz/5.4.1-gcc-11.3.1-y32p7p3
    zlib/1.2.13-gcc-11.3.1-dwcx77k libxml2/2.10.3-gcc-11.3.1-m4mk5ab
    cuda/11.8.0-gcc-11.3.1-i5witig libpciaccess/0.17-gcc-11.3.1-qksiqer
    ncurses/6.4-gcc-11.3.1-afnu276 hwloc/2.9.1-gcc-11.3.1-qedjm66
    openssl/3.1.2-gcc-11.3.1-mgoa6lt libevent/2.1.12-gcc-11.3.1-bpr3m74
    pmix/4.2.2-gcc-11.3.1-du4y5e7 slurm/22.05.6-gcc-11.3.1-atym2np
    libnl/3.3.0-gcc-11.3.1-gh3muw7 rdma-core/41.0-gcc-11.3.1-isp54jw
    ucx/1.14.1-gcc-11.3.1-o3wj4kz openmpi/4.1.2-gcc-11.3.1-fs7u3kb

                                 *****************
                                 * O   R   C   A *
                                 *****************

                                            #,                                       
                                            ###                                      
                                            ####                                     
                                            #####                                    
                                            ######                                   
                                           ########,                                 
                                     ,,################,,,,,                         
                               ,,#################################,,                 
                          ,,##########################################,,             
                       ,#########################################, ''#####,          
                    ,#############################################,,   '####,        
                  ,##################################################,,,,####,       
                ,###########''''           ''''###############################       
              ,#####''   ,,,,##########,,,,          '''####'''          '####       
            ,##' ,,,,###########################,,,                        '##       
           ' ,,###''''                  '''############,,,                           
         ,,##''                                '''############,,,,        ,,,,,,###''
      ,#''                                            '''#######################'''  
     '                                                          ''''####''''         
             ,#######,   #######,   ,#######,      ##                                
            ,#'     '#,  ##    ##  ,#'     '#,    #''#        ######   ,####,        
            ##       ##  ##   ,#'  ##            #'  '#       #        #'  '#        
            ##       ##  #######   ##           ,######,      #####,   #    #        
            '#,     ,#'  ##    ##  '#,     ,#' ,#      #,         ##   #,  ,#        
             '#######'   ##     ##  '#######'  #'      '#     #####' # '####'        



                  #######################################################
                  #                        -***-                        #
                  #          Department of theory and spectroscopy      #
                  #    Directorship and core code : Frank Neese         #
                  #        Max Planck Institute fuer Kohlenforschung    #
                  #                Kaiser Wilhelm Platz 1               #
                  #                 D-45470 Muelheim/Ruhr               #
                  #                      Germany                        #
                  #                                                     #
                  #                  All rights reserved                #
                  #                        -***-                        #
                  #######################################################


                         Program Version 5.0.3 -  RELEASE  -


 With contributions from (in alphabetic order):
   Daniel Aravena         : Magnetic Suceptibility
   Michael Atanasov       : Ab Initio Ligand Field Theory (pilot matlab implementation)
   Alexander A. Auer      : GIAO ZORA, VPT2 properties, NMR spectrum
   Ute Becker             : Parallelization
   Giovanni Bistoni       : ED, misc. LED, open-shell LED, HFLD
   Martin Brehm           : Molecular dynamics
   Dmytro Bykov           : SCF Hessian
   Vijay G. Chilkuri      : MRCI spin determinant printing, contributions to CSF-ICE
   Dipayan Datta          : RHF DLPNO-CCSD density
   Achintya Kumar Dutta   : EOM-CC, STEOM-CC
   Dmitry Ganyushin       : Spin-Orbit,Spin-Spin,Magnetic field MRCI
   Miquel Garcia          : C-PCM and meta-GGA Hessian, CC/C-PCM, Gaussian charge scheme
   Yang Guo               : DLPNO-NEVPT2, F12-NEVPT2, CIM, IAO-localization
   Andreas Hansen         : Spin unrestricted coupled pair/coupled cluster methods
   Benjamin Helmich-Paris : MC-RPA, TRAH-SCF, COSX integrals
   Lee Huntington         : MR-EOM, pCC
   Robert Izsak           : Overlap fitted RIJCOSX, COSX-SCS-MP3, EOM
   Marcus Kettner         : VPT2
   Christian Kollmar      : KDIIS, OOCD, Brueckner-CCSD(T), CCSD density, CASPT2, CASPT2-K
   Simone Kossmann        : Meta GGA functionals, TD-DFT gradient, OOMP2, MP2 Hessian
   Martin Krupicka        : Initial AUTO-CI
   Lucas Lang             : DCDCAS
   Marvin Lechner         : AUTO-CI (C++ implementation), FIC-MRCC
   Dagmar Lenk            : GEPOL surface, SMD
   Dimitrios Liakos       : Extrapolation schemes; Compound Job, initial MDCI parallelization
   Dimitrios Manganas     : Further ROCIS development; embedding schemes
   Dimitrios Pantazis     : SARC Basis sets
   Anastasios Papadopoulos: AUTO-CI, single reference methods and gradients
   Taras Petrenko         : DFT Hessian,TD-DFT gradient, ASA, ECA, R-Raman, ABS, FL, XAS/XES, NRVS
   Peter Pinski           : DLPNO-MP2, DLPNO-MP2 Gradient
   Christoph Reimann      : Effective Core Potentials
   Marius Retegan         : Local ZFS, SOC
   Christoph Riplinger    : Optimizer, TS searches, QM/MM, DLPNO-CCSD(T), (RO)-DLPNO pert. Triples
   Tobias Risthaus        : Range-separated hybrids, TD-DFT gradient, RPA, STAB
   Michael Roemelt        : Original ROCIS implementation
   Masaaki Saitow         : Open-shell DLPNO-CCSD energy and density
   Barbara Sandhoefer     : DKH picture change effects
   Avijit Sen             : IP-ROCIS
   Kantharuban Sivalingam : CASSCF convergence, NEVPT2, FIC-MRCI
   Bernardo de Souza      : ESD, SOC TD-DFT
   Georgi Stoychev        : AutoAux, RI-MP2 NMR, DLPNO-MP2 response
   Willem Van den Heuvel  : Paramagnetic NMR
   Boris Wezisla          : Elementary symmetry handling
   Frank Wennmohs         : Technical directorship


 We gratefully acknowledge several colleagues who have allowed us to
 interface, adapt or use parts of their codes:
   Stefan Grimme, W. Hujo, H. Kruse, P. Pracht,  : VdW corrections, initial TS optimization,
                  C. Bannwarth, S. Ehlert          DFT functionals, gCP, sTDA/sTD-DF
   Ed Valeev, F. Pavosevic, A. Kumar             : LibInt (2-el integral package), F12 methods
   Garnet Chan, S. Sharma, J. Yang, R. Olivares  : DMRG
   Ulf Ekstrom                                   : XCFun DFT Library
   Mihaly Kallay                                 : mrcc  (arbitrary order and MRCC methods)
   Jiri Pittner, Ondrej Demel                    : Mk-CCSD
   Frank Weinhold                                : gennbo (NPA and NBO analysis)
   Christopher J. Cramer and Donald G. Truhlar   : smd solvation model
   Lars Goerigk                                  : TD-DFT with DH, B97 family of functionals
   V. Asgeirsson, H. Jonsson                     : NEB implementation
   FAccTs GmbH                                   : IRC, NEB, NEB-TS, DLPNO-Multilevel, CI-OPT
                                                   MM, QMMM, 2- and 3-layer-ONIOM, Crystal-QMMM,
                                                   LR-CPCM, SF, NACMEs, symmetry and pop. for TD-DFT,
                                                   nearIR, NL-DFT gradient (VV10), updates on ESD,
                                                   ML-optimized integration grids
   S Lehtola, MJT Oliveira, MAL Marques          : LibXC Library
   Liviu Ungur et al                             : ANISO software


 Your calculation uses the libint2 library for the computation of 2-el integrals
 For citations please refer to: http://libint.valeyev.net

 Your ORCA version has been built with support for libXC version: 5.1.0
 For citations please refer to: https://tddft.org/programs/libxc/

 This ORCA versions uses:
   CBLAS   interface :  Fast vector & matrix operations
   LAPACKE interface :  Fast linear algebra routines
   SCALAPACK package :  Parallel linear algebra routines
   Shared memory     :  Shared parallel matrices
   BLAS/LAPACK       :  OpenBLAS 0.3.15  USE64BITINT DYNAMIC_ARCH NO_AFFINITY Prescott SINGLE_THREADED
        Core in use  :  Prescott
   Copyright (c) 2011-2014, The OpenBLAS Project


================================================================================

----- Orbital basis set information -----
Your calculation utilizes the basis: cc-pVQZ 
       H, B-Ne : Obtained from the ccRepo (grant-hill.group.shef.ac.uk/ccrepo) Feb. 2017
                 T. H. Dunning, Jr., J. Chem. Phys. 90, 1007 (1989)
            He : Obtained from the ccRepo (grant-hill.group.shef.ac.uk/ccrepo) Feb. 2017
                 D. E. Woon, T. H. Dunning, Jr., J. Chem. Phys. 100, 2975 (1994)
  Li-Be, Na-Mg : Obtained from the ccRepo (grant-hill.group.shef.ac.uk/ccrepo) Feb. 2017
                 B. P. Prascher, D. E. Woon, K. A. Peterson, T. H. Dunning, Jr., A. K. Wilson, Theor. Chem. Acc. 128, 69 (2011)
         Al-Ar : Obtained from the ccRepo (grant-hill.group.shef.ac.uk/ccrepo) Feb. 2017
                 D. E. Woon, T. H. Dunning, Jr., J. Chem. Phys. 98, 1358 (1993)
            Ca : Obtained from the Peterson Research Group Website (tyr0.chem.wsu.edu/~kipeters) Feb. 2017
                 J. Koput, K. A. Peterson, J. Phys. Chem. 106, 9595 (2002)
         Sc-Zn : Obtained from the ccRepo (grant-hill.group.shef.ac.uk/ccrepo) Feb. 2017
                 N. B. Balabanov, K. A. Peterson, J. Chem. Phys. 123, 064107 (2005)
                 N. B. Balabanov, K. A. Peterson, J. Chem. Phys. 125, 074110 (2006)
         Ga-Kr : Obtained from the ccRepo (grant-hill.group.shef.ac.uk/ccrepo) Feb. 2017
                 A. K. Wilson, D. E. Woon, K. A. Peterson, T. H. Dunning, Jr., J. Chem. Phys. 110, 7667 (1999)

----- AuxC basis set information -----
Your calculation utilizes the auxiliary basis: cc-pVQZ/C 
  Obtained from the EMSL Basis Set Exchange (bse.pnl.gov) Feb. 2017
  H-He, B-F, Al-Ar, Ga-Kr : F. Weigend, A. Kohn, C. Hattig, J. Chem. Phys. 116, 3175 (2002)
             Li-Be, Na-Mg : C. Haettig, Phys. Chem. Chem. Phys. 7, 59 (2005)
                       Ne : C. Haettig, Phys. Chem. Chem. Phys. 7, 59 (2005)
                            F. Weigend, A. Kohn, C. Hattig, J. Chem. Phys. 116, 3175 (2002)
                    Sc-Zn : D. H. Bross, J. G. Hill, H. J. Werner, K. A. Peterson, J. Chem. Phys. 139, 094302 (2013)

================================================================================
                                        WARNINGS
                       Please study these warnings very carefully!
================================================================================


WARNING: Post HF methods need fully converged wavefunctions
  ===> : Setting SCFConvForced true
         You can overwrite this default with %scf ConvForced false 


WARNING: MDCI localization with Augmented Hessian Foster-Boys
  ===> : Switching off randomization!

INFO   : the flag for use of the SHARK integral package has been found!

================================================================================
                                       INPUT FILE
================================================================================
NAME = input
|  1> ! DLPNO-CCSD(T) cc-pVQZ cc-pVQZ/C TIGHTPNO TIGHTSCF
|  2> %maxcore 10000
|  3> %pal
|  4> nprocs 32
|  5> end
|  6> *xyz -1 1
|  7> H 4.319730507516 12.905778635742 8.257654231871
|  8> C 4.602216000000 11.906393000000 8.554016000000
|  9> H 5.202880000000 11.484091000000 7.739706000000
| 10> H 3.716107000000 11.272812000000 8.632558000000
| 11> C 5.374535000000 11.713732000000 9.838472000000
| 12> H 5.615493000000 10.650762000000 9.919743000000
| 13> H 4.735518000000 11.963729000000 10.689975000000
| 14> C 6.662520000000 12.513456000000 9.859035000000
| 15> H 6.508118000000 13.501719000000 10.295197000000
| 16> H 6.978814000000 12.677005000000 8.832674000000
| 17> N 7.789977000000 11.866852000000 10.492303000000
| 18> H 8.587029000000 11.666920000000 9.886104000000
| 19> C 8.027069000000 11.829394000000 11.789235000000
| 20> N 7.043658000000 12.078071000000 12.675072000000
| 21> H 6.104205000000 11.836510000000 12.419336000000
| 22> H 7.300140000000 11.941330000000 13.643250000000
| 23> N 9.237913000000 11.580247000000 12.225607000000
| 24> H 9.410530000000 11.609444000000 13.226423000000
| 25> H 10.008986000000 11.469178000000 11.578427000000
| 26> C 13.103913000000 10.148615000000 9.309915000000
| 27> H 13.657765000000 10.597925000000 10.133105000000
| 28> H 13.617501000000 10.429931000000 8.398170000000
| 29> C 11.735925000000 10.760207000000 9.435358000000
| 30> C 10.782943000000 11.132518000000 8.253336000000
| 31> O 11.189137000000 11.036712000000 7.078030000000
| 32> O 9.658436000000 11.553099000000 8.561375000000
| 33> O 11.338516000000 11.023444000000 10.540512000000
| 34> C 11.114618000000 8.063680000000 10.882661000000
| 35> H 10.553289000000 8.067617000000 11.804856000000
| 36> C 12.392416000000 8.394543000000 10.859876000000
| 37> H 12.905050000000 8.693909000000 11.759850000000
| 38> C 13.137361000000 8.595852000000 9.580044000000
| 39> C 12.500912000000 7.775738000000 8.489914000000
| 40> H 13.145861000000 7.447765000000 7.682626000000
| 41> C 11.235494000000 7.389036000000 8.524577000000
| 42> H 10.819502000000 6.782044000000 7.729158000000
| 43> C 10.326948000000 7.721023000000 9.659093000000
| 44> H 9.720061000000 8.597514000000 9.385103000000
| 45> O 9.468181000000 6.631410000000 9.884944000000
| 46> H 8.765731000000 6.923220000000 10.552644000000
| 47> C 14.661174000000 8.269068000000 9.656310000000
| 48> O 15.190670000000 8.167421000000 10.790049000000
| 49> O 15.269476000000 8.197447000000 8.578085000000
| 50> *
| 51> 
| 52>                          ****END OF INPUT****
================================================================================

                       ****************************
                       * Single Point Calculation *
                       ****************************

---------------------------------
CARTESIAN COORDINATES (ANGSTROEM)
---------------------------------
  H      4.319731   12.905779    8.257654
  C      4.602216   11.906393    8.554016
  H      5.202880   11.484091    7.739706
  H      3.716107   11.272812    8.632558
  C      5.374535   11.713732    9.838472
  H      5.615493   10.650762    9.919743
  H      4.735518   11.963729   10.689975
  C      6.662520   12.513456    9.859035
  H      6.508118   13.501719   10.295197
  H      6.978814   12.677005    8.832674
  N      7.789977   11.866852   10.492303
  H      8.587029   11.666920    9.886104
  C      8.027069   11.829394   11.789235
  N      7.043658   12.078071   12.675072
  H      6.104205   11.836510   12.419336
  H      7.300140   11.941330   13.643250
  N      9.237913   11.580247   12.225607
  H      9.410530   11.609444   13.226423
  H     10.008986   11.469178   11.578427
  C     13.103913   10.148615    9.309915
  H     13.657765   10.597925   10.133105
  H     13.617501   10.429931    8.398170
  C     11.735925   10.760207    9.435358
  C     10.782943   11.132518    8.253336
  O     11.189137   11.036712    7.078030
  O      9.658436   11.553099    8.561375
  O     11.338516   11.023444   10.540512
  C     11.114618    8.063680   10.882661
  H     10.553289    8.067617   11.804856
  C     12.392416    8.394543   10.859876
  H     12.905050    8.693909   11.759850
  C     13.137361    8.595852    9.580044
  C     12.500912    7.775738    8.489914
  H     13.145861    7.447765    7.682626
  C     11.235494    7.389036    8.524577
  H     10.819502    6.782044    7.729158
  C     10.326948    7.721023    9.659093
  H      9.720061    8.597514    9.385103
  O      9.468181    6.631410    9.884944
  H      8.765731    6.923220   10.552644
  C     14.661174    8.269068    9.656310
  O     15.190670    8.167421   10.790049
  O     15.269476    8.197447    8.578085

----------------------------
CARTESIAN COORDINATES (A.U.)
----------------------------
  NO LB      ZA    FRAG     MASS         X           Y           Z
   0 H     1.0000    0     1.008    8.163108   24.388387   15.604705
   1 C     6.0000    0    12.011    8.696928   22.499822   16.164748
   2 H     1.0000    0     1.008    9.832018   21.701787   14.625925
   3 H     1.0000    0     1.008    7.022425   21.302527   16.313170
   4 C     6.0000    0    12.011   10.156399   22.135745   18.592018
   5 H     1.0000    0     1.008   10.611744   20.127023   18.745598
   6 H     1.0000    0     1.008    8.948832   22.608171   20.201125
   7 C     6.0000    0    12.011   12.590338   23.647005   18.630876
   8 H     1.0000    0     1.008   12.298561   25.514551   19.455103
   9 H     1.0000    0     1.008   13.188047   23.956068   16.691335
  10 N     7.0000    0    14.007   14.720923   22.425100   19.827579
  11 H     1.0000    0     1.008   16.227133   22.047284   18.682029
  12 C     6.0000    0    12.011   15.168962   22.354315   22.278425
  13 N     7.0000    0    14.007   13.310585   22.824246   23.952415
  14 H     1.0000    0     1.008   11.535276   22.367762   23.469144
  15 H     1.0000    0     1.008   13.795265   22.565843   25.782006
  16 N     7.0000    0    14.007   17.457126   21.883495   23.103049
  17 H     1.0000    0     1.008   17.783324   21.938670   24.994317
  18 H     1.0000    0     1.008   18.914242   21.673605   21.880056
  19 C     6.0000    0    12.011   24.762807   19.178103   17.593190
  20 H     1.0000    0     1.008   25.809435   20.027176   19.148793
  21 H     1.0000    0     1.008   25.733348   19.709713   15.870241
  22 C     6.0000    0    12.011   22.177684   20.333844   17.830243
  23 C     6.0000    0    12.011   20.376809   21.037410   15.596545
  24 O     8.0000    0    15.999   21.144405   20.856363   13.375538
  25 O     8.0000    0    15.999   18.251799   21.832193   16.178654
  26 O     8.0000    0    15.999   21.426690   20.831290   19.918681
  27 C     6.0000    0    12.011   21.003584   15.238147   20.565249
  28 H     1.0000    0     1.008   19.942826   15.245587   22.307945
  29 C     6.0000    0    12.011   23.418272   15.863387   20.522191
  30 H     1.0000    0     1.008   24.387010   16.429107   22.222896
  31 C     6.0000    0    12.011   24.826014   16.243806   18.103660
  32 C     6.0000    0    12.011   23.623300   14.694015   16.043612
  33 H     1.0000    0     1.008   24.842077   14.074236   14.518059
  34 C     6.0000    0    12.011   21.232007   13.963254   16.109116
  35 H     1.0000    0     1.008   20.445896   12.816206   14.605992
  36 C     6.0000    0    12.011   19.515104   14.590619   18.253040
  37 H     1.0000    0     1.008   18.368253   16.246947   17.735274
  38 O     8.0000    0    15.999   17.892269   12.531549   18.679837
  39 H     1.0000    0     1.008   16.564831   13.082990   19.941607
  40 C     6.0000    0    12.011   27.705604   15.626274   18.247781
  41 O     8.0000    0    15.999   28.706206   15.434189   20.390238
  42 O     8.0000    0    15.999   28.855128   15.490930   16.210231

--------------------------------
INTERNAL COORDINATES (ANGSTROEM)
--------------------------------
 H      0   0   0     0.000000000000     0.00000000     0.00000000
 C      1   0   0     1.080000000000     0.00000000     0.00000000
 H      2   1   0     1.096465684005   107.21107428     0.00000000
 H      2   1   3     1.092146001781   110.14154010   245.18825153
 C      2   1   3     1.511099637555   119.00690074   122.24075093
 H      5   2   1     1.092964296812   107.45050968   183.65455796
 H      5   2   1     1.093571481572   109.51523482    67.70664644
 C      5   2   1     1.516207991461   112.23742108   303.40506720
 H      8   5   2     1.091210806864   111.27914559    90.97157163
 H      8   5   2     1.086373357625   108.29533289   334.35277117
 N      8   5   2     1.445781580838   115.62571812   217.26094328
 H     11   8   5     1.021147356129   115.86364971   116.58345982
 C     11   8   5     1.318957289245   125.70252448   277.95539141
 N     13  11   8     1.346716241760   120.68270579    18.64780401
 H     14  13  11     1.003157294559   118.14497462    30.57548057
 H     14  13  11     1.010865845248   114.81833665   174.54213697
 N     13  11   8     1.310968322397   119.91598024   200.32977781
 H     17  13  11     1.016012676768   118.64250516   176.47959076
 H     17  13  11     1.012784205293   120.75262320     3.62599321
 C     19  17  13     4.058153085634   166.78670395   245.20628258
 H     20  19  17     1.089161737348    80.27492680   264.03992338
 H     20  19  17     1.083600604755   138.35971058   159.75621781
 C     20  19  17     1.503719351760    29.21568215   122.01850321
 C     23  20  19     1.563318963465   126.04015516   183.89080502
 O     24  23  20     1.247203491379   119.71483553   353.51219892
 O     24  23  20     1.239472628230   116.48412421   175.71040937
 O     23  20  19     1.203575089127   117.77113735     5.87295827
 C     27  23  20     2.987875363582    85.02256011   288.84610369
 H     28  27  23     1.079606115319    97.65255651   191.25280982
 C     28  27  23     1.320135299808    71.16894058    70.89332826
 H     30  28  27     1.078131170400   121.02550689    86.55530731
 C     30  28  27     1.494469241815   122.07459324   276.97926622
 C     32  30  28     1.505336414061   109.63539492   333.09883976
 H     33  32  30     1.084084598301   116.90839897   208.01799698
 C     33  32  30     1.323639934082   122.98356273    24.08676226
 H     35  33  32     1.083595873787   120.75995801   181.24514313
 C     35  33  32     1.490905012582   122.51093408   359.34443550
 H     37  35  33     1.100735583122   108.89793298    98.20545472
 O     37  35  33     1.405612295144   108.78187683   216.50843176
 H     39  37  35     1.012132584497   107.84988963   188.85065111
 C     32  30  28     1.560323794724   114.62858940   209.46358764
 O     41  32  30     1.255413177701   118.22916648   344.33472856
 O     41  32  30     1.240052434968   116.65795657   167.91291490

---------------------------
INTERNAL COORDINATES (A.U.)
---------------------------
 H      0   0   0     0.000000000000     0.00000000     0.00000000
 C      1   0   0     2.040904224635     0.00000000     0.00000000
 H      2   1   0     2.072019858012   107.21107428     0.00000000
 H      2   1   3     2.063856841623   110.14154010   245.18825153
 C      2   1   3     2.855564476046   119.00690074   122.24075093
 H      5   2   1     2.065403195128   107.45050968   183.65455796
 H      5   2   1     2.066550608037   109.51523482    67.70664644
 C      5   2   1     2.865217865924   112.23742108   303.40506720
 H      8   5   2     2.062089579348   111.27914559    90.97157163
 H      8   5   2     2.052948125100   108.29533289   334.35277117
 N      8   5   2     2.732131237251   115.62571812   217.26094328
 H     11   8   5     1.929688845461   115.86364971   116.58345982
 C     11   8   5     2.492468059012   125.70252448   277.95539141
 N     13  11   8     2.544924877029   120.68270579    18.64780401
 H     14  13  11     1.895692555961   118.14497462    30.57548057
 H     14  13  11     1.910259605654   114.81833665   174.54213697
 N     13  11   8     2.477371099577   119.91598024   200.32977781
 H     17  13  11     1.919985707684   118.64250516   176.47959076
 H     17  13  11     1.913884780764   120.75262320     3.62599321
 C     19  17  13     7.668797941376   166.78670395   245.20628258
 H     20  19  17     2.058217399135    80.27492680   264.03992338
 H     20  19  17     2.047708381538   138.35971058   159.75621781
 C     20  19  17     2.841617757104    29.21568215   122.01850321
 C     23  20  19     2.954244700914   126.04015516   183.89080502
 O     24  23  20     2.356873031977   119.71483553   353.51219892
 O     24  23  20     2.342263817846   116.48412421   175.71040937
 O     23  20  19     2.274427300059   117.77113735     5.87295827
 C     27  23  20     5.646266159461    85.02256011   288.84610369
 H     28  27  23     2.040159890460    97.65255651   191.25280982
 C     28  27  23     2.494694176358    71.16894058    70.89332826
 H     30  28  27     2.037372648500   121.02550689    86.55530731
 C     30  28  27     2.824137582599   122.07459324   276.97926622
 C     32  30  28     2.844673561994   109.63539492   333.09883976
 H     33  32  30     2.048622996791   116.90839897   208.01799698
 C     33  32  30     2.501316975337   122.98356273    24.08676226
 H     35  33  32     2.047699441305   120.75995801   181.24514313
 C     35  33  32     2.817402165470   122.51093408   359.34443550
 H     37  35  33     2.080088797962   108.89793298    98.20545472
 O     37  35  33     2.656222288294   108.78187683   216.50843176
 H     39  37  35     1.912653395917   107.84988963   188.85065111
 C     32  30  28     2.948584652269   114.62858940   209.46358764
 O     41  32  30     2.372387090771   118.22916648   344.33472856
 O     41  32  30     2.343359493792   116.65795657   167.91291490

---------------------
BASIS SET INFORMATION
---------------------
There are 4 groups of distinct atoms

 Group   1 Type H   : 6s3p2d1f contracted to 4s3p2d1f pattern {3111/111/11/1}
 Group   2 Type C   : 21s6p3d2f1g contracted to 5s4p3d2f1g pattern {99111/3111/111/11/1}
 Group   3 Type N   : 21s6p3d2f1g contracted to 5s4p3d2f1g pattern {99111/3111/111/11/1}
 Group   4 Type O   : 21s6p3d2f1g contracted to 5s4p3d2f1g pattern {99111/3111/111/11/1}

Atom   0H    basis set group =>   1
Atom   1C    basis set group =>   2
Atom   2H    basis set group =>   1
Atom   3H    basis set group =>   1
Atom   4C    basis set group =>   2
Atom   5H    basis set group =>   1
Atom   6H    basis set group =>   1
Atom   7C    basis set group =>   2
Atom   8H    basis set group =>   1
Atom   9H    basis set group =>   1
Atom  10N    basis set group =>   3
Atom  11H    basis set group =>   1
Atom  12C    basis set group =>   2
Atom  13N    basis set group =>   3
Atom  14H    basis set group =>   1
Atom  15H    basis set group =>   1
Atom  16N    basis set group =>   3
Atom  17H    basis set group =>   1
Atom  18H    basis set group =>   1
Atom  19C    basis set group =>   2
Atom  20H    basis set group =>   1
Atom  21H    basis set group =>   1
Atom  22C    basis set group =>   2
Atom  23C    basis set group =>   2
Atom  24O    basis set group =>   4
Atom  25O    basis set group =>   4
Atom  26O    basis set group =>   4
Atom  27C    basis set group =>   2
Atom  28H    basis set group =>   1
Atom  29C    basis set group =>   2
Atom  30H    basis set group =>   1
Atom  31C    basis set group =>   2
Atom  32C    basis set group =>   2
Atom  33H    basis set group =>   1
Atom  34C    basis set group =>   2
Atom  35H    basis set group =>   1
Atom  36C    basis set group =>   2
Atom  37H    basis set group =>   1
Atom  38O    basis set group =>   4
Atom  39H    basis set group =>   1
Atom  40C    basis set group =>   2
Atom  41O    basis set group =>   4
Atom  42O    basis set group =>   4
---------------------------------
AUXILIARY/C BASIS SET INFORMATION
---------------------------------
There are 4 groups of distinct atoms

 Group   1 Type H   : 5s4p3d2f1g contracted to 5s4p3d2f1g pattern {11111/1111/111/11/1}
 Group   2 Type C   : 8s7p6d5f3g1h contracted to 8s7p6d5f3g1h pattern {11111111/1111111/111111/11111/111/1}
 Group   3 Type N   : 8s7p6d5f3g1h contracted to 8s7p6d5f3g1h pattern {11111111/1111111/111111/11111/111/1}
 Group   4 Type O   : 8s7p6d5f3g1h contracted to 8s7p6d5f3g1h pattern {11111111/1111111/111111/11111/111/1}

Atom   0H    basis set group =>   1
Atom   1C    basis set group =>   2
Atom   2H    basis set group =>   1
Atom   3H    basis set group =>   1
Atom   4C    basis set group =>   2
Atom   5H    basis set group =>   1
Atom   6H    basis set group =>   1
Atom   7C    basis set group =>   2
Atom   8H    basis set group =>   1
Atom   9H    basis set group =>   1
Atom  10N    basis set group =>   3
Atom  11H    basis set group =>   1
Atom  12C    basis set group =>   2
Atom  13N    basis set group =>   3
Atom  14H    basis set group =>   1
Atom  15H    basis set group =>   1
Atom  16N    basis set group =>   3
Atom  17H    basis set group =>   1
Atom  18H    basis set group =>   1
Atom  19C    basis set group =>   2
Atom  20H    basis set group =>   1
Atom  21H    basis set group =>   1
Atom  22C    basis set group =>   2
Atom  23C    basis set group =>   2
Atom  24O    basis set group =>   4
Atom  25O    basis set group =>   4
Atom  26O    basis set group =>   4
Atom  27C    basis set group =>   2
Atom  28H    basis set group =>   1
Atom  29C    basis set group =>   2
Atom  30H    basis set group =>   1
Atom  31C    basis set group =>   2
Atom  32C    basis set group =>   2
Atom  33H    basis set group =>   1
Atom  34C    basis set group =>   2
Atom  35H    basis set group =>   1
Atom  36C    basis set group =>   2
Atom  37H    basis set group =>   1
Atom  38O    basis set group =>   4
Atom  39H    basis set group =>   1
Atom  40C    basis set group =>   2
Atom  41O    basis set group =>   4
Atom  42O    basis set group =>   4


           ************************************************************
           *        Program running with 32 parallel MPI-processes    *
           *              working on a common directory               *
           ************************************************************
------------------------------------------------------------------------------
                           ORCA GTO INTEGRAL CALCULATION
------------------------------------------------------------------------------
------------------------------------------------------------------------------
                   ___                                                        
                  /   \      - P O W E R E D   B Y -                         
                 /     \                                                     
                 |  |  |   _    _      __       _____    __    __             
                 |  |  |  | |  | |    /  \     |  _  \  |  |  /  |          
                  \  \/   | |  | |   /    \    | | | |  |  | /  /          
                 / \  \   | |__| |  /  /\  \   | |_| |  |  |/  /          
                |  |  |   |  __  | /  /__\  \  |    /   |      \           
                |  |  |   | |  | | |   __   |  |    \   |  |\   \          
                \     /   | |  | | |  |  |  |  | |\  \  |  | \   \       
                 \___/    |_|  |_| |__|  |__|  |_| \__\ |__|  \__/        
                                                                              
                      - O R C A' S   B I G   F R I E N D -                    
                                      &                                       
                       - I N T E G R A L  F E E D E R -                       
                                                                              
 v1 FN, 2020, v2 2021                                                         
------------------------------------------------------------------------------


Reading SHARK input file input.SHARKINP.tmp ... ok
----------------------
SHARK INTEGRAL PACKAGE
----------------------

Number of atoms                             ...     43
Number of basis functions                   ...   2026
Number of shells                            ...    706
Maximum angular momentum                    ...      4
Integral batch strategy                     ... SHARK/LIBINT Hybrid
RI-J (if used) integral strategy            ... SPLIT-RIJ (Revised 2003 algorithm where possible)
Printlevel                                  ...      1
Contraction scheme used                     ... PARTIAL GENERAL contraction
Coulomb Range Separation                    ... NOT USED
Exchange Range Separation                   ... NOT USED
Finite Nucleus Model                        ... NOT USED
Auxiliary Coulomb fitting basis             ... NOT available
Auxiliary J/K fitting basis                 ... NOT available
Auxiliary Correlation fitting basis         ... AVAILABLE
   # of basis functions in Aux-C            ...   4136
   # of shells in Aux-C                     ...    990
   Maximum angular momentum in Aux-C        ...      5
Auxiliary 'external' fitting basis          ... NOT available
Integral threshold                          ...     2.500000e-11
Primitive cut-off                           ...     2.500000e-12
Primitive pair pre-selection threshold      ...     2.500000e-12

Calculating pre-screening integrals         ... done (  0.3 sec) Dimension = 706
Calculating pre-screening integrals (ORCA)  ... done (  0.5 sec) Dimension = 545
Organizing shell pair data                  ... done (  1.5 sec)
Shell pair information
Total number of shell pairs                 ...    249571
Shell pairs after pre-screening             ...    112839
Total number of primitive shell pairs       ...    314157
Primitive shell pairs kept                  ...    127837
          la=0 lb=0:  23710 shell pairs
          la=1 lb=0:  26821 shell pairs
          la=1 lb=1:   7090 shell pairs
          la=2 lb=0:  16667 shell pairs
          la=2 lb=1:   9280 shell pairs
          la=2 lb=2:   3051 shell pairs
          la=3 lb=0:   9313 shell pairs
          la=3 lb=1:   5336 shell pairs
          la=3 lb=2:   3415 shell pairs
          la=3 lb=3:    998 shell pairs
          la=4 lb=0:   3273 shell pairs
          la=4 lb=1:   1866 shell pairs
          la=4 lb=2:   1209 shell pairs
          la=4 lb=3:    677 shell pairs
          la=4 lb=4:    133 shell pairs

Calculating one electron integrals          ... done (  0.4 sec)
Calculating RI/C V-Matrix + Cholesky decomp.... done (  0.8 sec)
Calculating Nuclear repulsion               ... done (  0.0 sec) ENN=   2018.381565568929 Eh

SHARK setup successfully completed in   5.2 seconds

Maximum memory used throughout the entire GTOINT-calculation: 173.8 MB


           ************************************************************
           *        Program running with 32 parallel MPI-processes    *
           *              working on a common directory               *
           ************************************************************
-------------------------------------------------------------------------------
                                 ORCA SCF
-------------------------------------------------------------------------------

------------
SCF SETTINGS
------------
Hamiltonian:
 Ab initio Hamiltonian  Method          .... Hartree-Fock(GTOs)


General Settings:
 Integral files         IntName         .... input
 Hartree-Fock type      HFTyp           .... RHF
 Total Charge           Charge          ....   -1
 Multiplicity           Mult            ....    1
 Number of Electrons    NEL             ....  174
 Basis Dimension        Dim             .... 1865
 Nuclear Repulsion      ENuc            ....   2018.3815655689 Eh

Convergence Acceleration:
 DIIS                   CNVDIIS         .... on
   Start iteration      DIISMaxIt       ....    12
   Startup error        DIISStart       ....  0.200000
   # of expansion vecs  DIISMaxEq       ....     5
   Bias factor          DIISBfac        ....   1.050
   Max. coefficient     DIISMaxC        ....  10.000
 Trust-Rad. Augm. Hess. CNVTRAH         .... auto
   Auto Start mean grad. ratio tolernc. ....  1.125000
   Auto Start start iteration           ....    20
   Auto Start num. interpolation iter.  ....    10
   Max. Number of Micro iterations      ....    16
   Max. Number of Macro iterations      .... Maxiter - #DIIS iter
   Number of Davidson start vectors     ....     2
   Converg. threshold I  (grad. norm)   ....   1.000e-05
   Converg. threshold II (energy diff.) ....   1.000e-08
   Grad. Scal. Fac. for Micro threshold ....   0.100
   Minimum threshold for Micro iter.    ....   0.010
   NR start threshold (gradient norm)   ....   0.001
   Initial trust radius                 ....   0.400
   Minimum AH scaling param. (alpha)    ....   1.000
   Maximum AH scaling param. (alpha)    .... 1000.000
   Orbital update algorithm             .... Taylor
   White noise on init. David. guess    .... on
   Maximum white noise                  ....   0.010
   Quad. conv. algorithm                .... NR
 SOSCF                  CNVSOSCF        .... on
   Start iteration      SOSCFMaxIt      ....   150
   Startup grad/error   SOSCFStart      ....  0.003300
 Level Shifting         CNVShift        .... on
   Level shift para.    LevelShift      ....    0.2500
   Turn off err/grad.   ShiftErr        ....    0.0010
 Zerner damping         CNVZerner       .... off
 Static damping         CNVDamp         .... on
   Fraction old density DampFac         ....    0.7000
   Max. Damping (<1)    DampMax         ....    0.9800
   Min. Damping (>=0)   DampMin         ....    0.0000
   Turn off err/grad.   DampErr         ....    0.1000
 Fernandez-Rico         CNVRico         .... off

SCF Procedure:
 Maximum # iterations   MaxIter         ....   125
 SCF integral mode      SCFMode         .... Direct
   Integral package                     .... SHARK and LIBINT hybrid scheme
 Reset frequency        DirectResetFreq ....    20
 Integral Threshold     Thresh          ....  2.500e-11 Eh
 Primitive CutOff       TCut            ....  2.500e-12 Eh

Convergence Tolerance:
 Convergence Check Mode ConvCheckMode   .... Total+1el-Energy
 Convergence forced     ConvForced      .... 1
 Energy Change          TolE            ....  1.000e-08 Eh
 1-El. energy change                    ....  1.000e-05 Eh
 Orbital Gradient       TolG            ....  1.000e-05
 Orbital Rotation angle TolX            ....  1.000e-05
 DIIS Error             TolErr          ....  5.000e-07


Diagonalization of the overlap matrix:
Smallest eigenvalue                        ... 7.528e-06
Time for diagonalization                   ...    0.369 sec
Threshold for overlap eigenvalues          ... 1.000e-08
Number of eigenvalues below threshold      ... 0
Time for construction of square roots      ...    0.384 sec
Total time needed                          ...    0.768 sec

Time for model grid setup =    0.301 sec

------------------------------
INITIAL GUESS: MODEL POTENTIAL
------------------------------
Loading Hartree-Fock densities                     ... done
Calculating cut-offs                               ... done
Initializing the effective Hamiltonian             ... done
Setting up the integral package (SHARK)            ... done
Starting the Coulomb interaction                   ... done (   0.6 sec)
Reading the grid                                   ... done
Mapping shells                                     ... done
Starting the XC term evaluation                    ... done (   0.4 sec)
Transforming the Hamiltonian                       ... done (   0.3 sec)
Diagonalizing the Hamiltonian                      ... done (   0.4 sec)
Back transforming the eigenvectors                 ... done (   0.1 sec)
Now organizing SCF variables                       ... done
                      ------------------
                      INITIAL GUESS DONE (   2.3 sec)
                      ------------------
--------------
SCF ITERATIONS
--------------
ITER       Energy         Delta-E        Max-DP      RMS-DP      [F,P]     Damp
               ***  Starting incremental Fock matrix formation  ***
  0  -1153.5929948386   0.000000000000 0.20773111  0.00048089  0.3835694 0.7000
  1  -1154.0215118684  -0.428517029774 0.22874569  0.00049486  0.2323381 0.7000
                               ***Turning on DIIS***
  2  -1154.2747935095  -0.253281641152 0.14345852  0.00031756  0.1340066 0.7000
  3  -1157.0715522940  -2.796758784469 0.15344722  0.00047136  0.0788337 0.0000
  4  -1154.6984193441   2.373132949903 0.07701273  0.00014396  0.0087384 0.0000
  5  -1154.8208272663  -0.122407922252 0.03650702  0.00006348  0.0045783 0.0000
                      *** Initiating the SOSCF procedure ***
                           *** Shutting down DIIS ***
                      *** Re-Reading the Fockian *** 
                      *** Removing any level shift *** 
ITER      Energy       Delta-E        Grad      Rot      Max-DP    RMS-DP
  6  -1154.78495266   0.0358746033  0.000862  0.000862  0.016469  0.000032
               *** Restarting incremental Fock matrix formation ***
  7  -1154.80288441  -0.0179317515  0.000374  0.000896  0.010330  0.000020
  8  -1154.80291092  -0.0000265023  0.000173  0.000779  0.005592  0.000014
  9  -1154.80291923  -0.0000083096  0.000047  0.000131  0.001531  0.000004
 10  -1154.80291988  -0.0000006569  0.000019  0.000048  0.000415  0.000001
 11  -1154.80291997  -0.0000000843  0.000011  0.000040  0.000084  0.000000
 12  -1154.80291999  -0.0000000186  0.000003  0.000010  0.000098  0.000000
                  ***Gradient check signals convergence***
              ***Rediagonalizing the Fockian in SOSCF/NRSCF***

               *****************************************************
               *                     SUCCESS                       *
               *           SCF CONVERGED AFTER  13 CYCLES          *
               *****************************************************


----------------
TOTAL SCF ENERGY
----------------

Total Energy       :        -1154.80291999 Eh          -31423.78501 eV

Components:
Nuclear Repulsion  :         2018.38156557 Eh           54922.95463 eV
Electronic Energy  :        -3173.18448556 Eh          -86346.73964 eV
One Electron Energy:        -5616.66870806 Eh         -152837.32565 eV
Two Electron Energy:         2443.48422250 Eh           66490.58601 eV

Virial components:
Potential Energy   :        -2308.98879710 Eh          -62830.77942 eV
Kinetic Energy     :         1154.18587711 Eh           31406.99442 eV
Virial Ratio       :            2.00053461


---------------
SCF CONVERGENCE
---------------

  Last Energy change         ...   -6.4110e-09  Tolerance :   1.0000e-08
  Last MAX-Density change    ...    3.5262e-05  Tolerance :   1.0000e-07
  Last RMS-Density change    ...    7.7233e-08  Tolerance :   5.0000e-09
  Last Orbital Gradient      ...    6.4084e-07  Tolerance :   1.0000e-05
  Last Orbital Rotation      ...    2.3918e-06  Tolerance :   1.0000e-05

             **** THE GBW FILE WAS UPDATED (input.gbw) ****
             **** DENSITY input.scfp WAS UPDATED ****
             **** ENERGY FILE WAS UPDATED (input.en.tmp) ****
             **** THE GBW FILE WAS UPDATED (input.gbw) ****
             **** DENSITY input.scfp WAS UPDATED ****
----------------
ORBITAL ENERGIES
----------------

  NO   OCC          E(Eh)            E(eV) 
   0   2.0000     -20.453025      -556.5551 
   1   2.0000     -20.438756      -556.1668 
   2   2.0000     -20.365504      -554.1735 
   3   2.0000     -20.350583      -553.7675 
   4   2.0000     -20.294930      -552.2531 
   5   2.0000     -20.294055      -552.2293 
   6   2.0000     -15.581862      -424.0040 
   7   2.0000     -15.549866      -423.1334 
   8   2.0000     -15.534657      -422.7195 
   9   2.0000     -11.359202      -309.0996 
  10   2.0000     -11.221958      -305.3650 
  11   2.0000     -11.210085      -305.0419 
  12   2.0000     -11.200422      -304.7790 
  13   2.0000     -11.190663      -304.5134 
  14   2.0000     -11.175730      -304.1071 
  15   2.0000     -11.159914      -303.6767 
  16   2.0000     -11.142877      -303.2131 
  17   2.0000     -11.102056      -302.1023 
  18   2.0000     -11.098169      -301.9965 
  19   2.0000     -11.090816      -301.7965 
  20   2.0000     -11.086397      -301.6762 
  21   2.0000     -11.085279      -301.6458 
  22   2.0000     -11.081683      -301.5479 
  23   2.0000      -1.324767       -36.0488 
  24   2.0000      -1.299884       -35.3716 
  25   2.0000      -1.251986       -34.0683 
  26   2.0000      -1.245081       -33.8804 
  27   2.0000      -1.186373       -32.2829 
  28   2.0000      -1.185907       -32.2702 
  29   2.0000      -1.173656       -31.9368 
  30   2.0000      -1.136483       -30.9253 
  31   2.0000      -1.075251       -29.2591 
  32   2.0000      -1.028624       -27.9903 
  33   2.0000      -1.005599       -27.3637 
  34   2.0000      -0.911172       -24.7942 
  35   2.0000      -0.909497       -24.7487 
  36   2.0000      -0.885546       -24.0969 
  37   2.0000      -0.830404       -22.5964 
  38   2.0000      -0.822796       -22.3894 
  39   2.0000      -0.789596       -21.4860 
  40   2.0000      -0.752879       -20.4869 
  41   2.0000      -0.740709       -20.1557 
  42   2.0000      -0.716152       -19.4875 
  43   2.0000      -0.704302       -19.1650 
  44   2.0000      -0.673786       -18.3347 
  45   2.0000      -0.660064       -17.9613 
  46   2.0000      -0.644279       -17.5317 
  47   2.0000      -0.614830       -16.7304 
  48   2.0000      -0.601416       -16.3654 
  49   2.0000      -0.593246       -16.1430 
  50   2.0000      -0.581175       -15.8146 
  51   2.0000      -0.573301       -15.6003 
  52   2.0000      -0.563810       -15.3420 
  53   2.0000      -0.554869       -15.0988 
  54   2.0000      -0.543144       -14.7797 
  55   2.0000      -0.533907       -14.5283 
  56   2.0000      -0.509230       -13.8569 
  57   2.0000      -0.508563       -13.8387 
  58   2.0000      -0.500430       -13.6174 
  59   2.0000      -0.495689       -13.4884 
  60   2.0000      -0.472751       -12.8642 
  61   2.0000      -0.469362       -12.7720 
  62   2.0000      -0.465470       -12.6661 
  63   2.0000      -0.455282       -12.3888 
  64   2.0000      -0.452007       -12.2997 
  65   2.0000      -0.450784       -12.2665 
  66   2.0000      -0.441026       -12.0009 
  67   2.0000      -0.437405       -11.9024 
  68   2.0000      -0.420981       -11.4555 
  69   2.0000      -0.418165       -11.3788 
  70   2.0000      -0.409196       -11.1348 
  71   2.0000      -0.404239       -10.9999 
  72   2.0000      -0.386849       -10.5267 
  73   2.0000      -0.383819       -10.4442 
  74   2.0000      -0.360909        -9.8208 
  75   2.0000      -0.355678        -9.6785 
  76   2.0000      -0.347008        -9.4426 
  77   2.0000      -0.336799        -9.1648 
  78   2.0000      -0.306215        -8.3325 
  79   2.0000      -0.285312        -7.7637 
  80   2.0000      -0.261834        -7.1249 
  81   2.0000      -0.257693        -7.0122 
  82   2.0000      -0.242962        -6.6113 
  83   2.0000      -0.224642        -6.1128 
  84   2.0000      -0.212172        -5.7735 
  85   2.0000      -0.200167        -5.4468 
  86   2.0000      -0.194656        -5.2969 
  87   0.0000       0.119561         3.2534 
  88   0.0000       0.146455         3.9852 
  89   0.0000       0.169257         4.6057 
  90   0.0000       0.171776         4.6743 
  91   0.0000       0.189165         5.1474 
  92   0.0000       0.196029         5.3342 
  93   0.0000       0.212440         5.7808 
  94   0.0000       0.222709         6.0602 
  95   0.0000       0.227377         6.1872 
  96   0.0000       0.233835         6.3630 
  97   0.0000       0.238009         6.4765 
  98   0.0000       0.243432         6.6241 
  99   0.0000       0.255669         6.9571 
 100   0.0000       0.261883         7.1262 
 101   0.0000       0.264137         7.1875 
 102   0.0000       0.271540         7.3890 
 103   0.0000       0.275308         7.4915 
 104   0.0000       0.296139         8.0583 
 105   0.0000       0.301528         8.2050 
 106   0.0000       0.307489         8.3672 
 107   0.0000       0.313263         8.5243 
 108   0.0000       0.318352         8.6628 
 109   0.0000       0.320708         8.7269 
 110   0.0000       0.326419         8.8823 
 111   0.0000       0.334248         9.0954 
 112   0.0000       0.336649         9.1607 
 113   0.0000       0.338418         9.2088 
 114   0.0000       0.346934         9.4405 
 115   0.0000       0.352938         9.6039 
 116   0.0000       0.360857         9.8194 
 117   0.0000       0.376966        10.2578 
 118   0.0000       0.380501        10.3540 
 119   0.0000       0.387668        10.5490 
 120   0.0000       0.393497        10.7076 
 121   0.0000       0.402064        10.9407 
 122   0.0000       0.408594        11.1184 
 123   0.0000       0.414931        11.2909 
 124   0.0000       0.416930        11.3452 
 125   0.0000       0.426240        11.5986 
 126   0.0000       0.430631        11.7181 
 127   0.0000       0.435316        11.8456 
 128   0.0000       0.443598        12.0709 
 129   0.0000       0.448548        12.2056 
 130   0.0000       0.453418        12.3381 
 131   0.0000       0.456559        12.4236 
 132   0.0000       0.461718        12.5640 
 133   0.0000       0.470671        12.8076 
 134   0.0000       0.476540        12.9673 
 135   0.0000       0.478180        13.0120 
 136   0.0000       0.479089        13.0367 
 137   0.0000       0.481742        13.1089 
 138   0.0000       0.487430        13.2637 
 139   0.0000       0.489775        13.3275 
 140   0.0000       0.494043        13.4436 
 141   0.0000       0.503593        13.7035 
 142   0.0000       0.505115        13.7449 
 143   0.0000       0.508482        13.8365 
 144   0.0000       0.514718        14.0062 
 145   0.0000       0.523383        14.2420 
 146   0.0000       0.526419        14.3246 
 147   0.0000       0.529876        14.4187 
 148   0.0000       0.531872        14.4730 
 149   0.0000       0.536106        14.5882 
 150   0.0000       0.538267        14.6470 
 151   0.0000       0.541938        14.7469 
 152   0.0000       0.545128        14.8337 
 153   0.0000       0.550497        14.9798 
 154   0.0000       0.551324        15.0023 
 155   0.0000       0.561573        15.2812 
 156   0.0000       0.562975        15.3193 
 157   0.0000       0.568597        15.4723 
 158   0.0000       0.577298        15.7091 
 159   0.0000       0.579759        15.7760 
 160   0.0000       0.582547        15.8519 
 161   0.0000       0.586340        15.9551 
 162   0.0000       0.588838        16.0231 
 163   0.0000       0.594183        16.1685 
 164   0.0000       0.600731        16.3467 
 165   0.0000       0.601483        16.3672 
 166   0.0000       0.603013        16.4088 
 167   0.0000       0.609283        16.5794 
 168   0.0000       0.612750        16.6738 
 169   0.0000       0.614891        16.7320 
 170   0.0000       0.617082        16.7916 
 171   0.0000       0.618969        16.8430 
 172   0.0000       0.625003        17.0072 
 173   0.0000       0.626831        17.0569 
 174   0.0000       0.631970        17.1968 
 175   0.0000       0.636388        17.3170 
 176   0.0000       0.639828        17.4106 
 177   0.0000       0.644242        17.5307 
 178   0.0000       0.649081        17.6624 
 179   0.0000       0.656258        17.8577 
 180   0.0000       0.658675        17.9235 
 181   0.0000       0.664263        18.0755 
 182   0.0000       0.666385        18.1333 
 183   0.0000       0.671177        18.2636 
 184   0.0000       0.674728        18.3603 
 185   0.0000       0.683397        18.5962 
 186   0.0000       0.684846        18.6356 
 187   0.0000       0.693496        18.8710 
 188   0.0000       0.698000        18.9935 
 189   0.0000       0.703999        19.1568 
 190   0.0000       0.711899        19.3718 
 191   0.0000       0.719887        19.5891 
 192   0.0000       0.723882        19.6978 
 193   0.0000       0.726937        19.7809 
 194   0.0000       0.732659        19.9367 
 195   0.0000       0.740453        20.1488 
 196   0.0000       0.742929        20.2161 
 197   0.0000       0.748872        20.3779 
 198   0.0000       0.752974        20.4895 
 199   0.0000       0.754092        20.5199 
 200   0.0000       0.767243        20.8777 
 201   0.0000       0.773475        21.0473 
 202   0.0000       0.781819        21.2744 
 203   0.0000       0.786690        21.4069 
 204   0.0000       0.790868        21.5206 
 205   0.0000       0.793931        21.6040 
 206   0.0000       0.798852        21.7379 
 207   0.0000       0.804537        21.8926 
 208   0.0000       0.809982        22.0407 
 209   0.0000       0.812699        22.1147 
 210   0.0000       0.814522        22.1643 
 211   0.0000       0.818169        22.2635 
 212   0.0000       0.825528        22.4638 
 213   0.0000       0.828584        22.5469 
 214   0.0000       0.830968        22.6118 
 215   0.0000       0.837446        22.7881 
 216   0.0000       0.842889        22.9362 
 217   0.0000       0.846068        23.0227 
 218   0.0000       0.851964        23.1831 
 219   0.0000       0.854868        23.2621 
 220   0.0000       0.861680        23.4475 
 221   0.0000       0.865976        23.5644 
 222   0.0000       0.871963        23.7273 
 223   0.0000       0.876163        23.8416 
 224   0.0000       0.884947        24.0806 
 225   0.0000       0.887054        24.1380 
 226   0.0000       0.887693        24.1554 
 227   0.0000       0.893048        24.3011 
 228   0.0000       0.894096        24.3296 
 229   0.0000       0.903994        24.5989 
 230   0.0000       0.909676        24.7536 
 231   0.0000       0.913855        24.8672 
 232   0.0000       0.922385        25.0994 
 233   0.0000       0.926625        25.2148 
 234   0.0000       0.932804        25.3829 
 235   0.0000       0.938644        25.5418 
 236   0.0000       0.941662        25.6239 
 237   0.0000       0.943326        25.6692 
 238   0.0000       0.951517        25.8921 
 239   0.0000       0.956274        26.0215 
 240   0.0000       0.959002        26.0958 
 241   0.0000       0.960316        26.1315 
 242   0.0000       0.964274        26.2392 
 243   0.0000       0.967685        26.3321 
 244   0.0000       0.974969        26.5302 
 245   0.0000       0.978466        26.6254 
 246   0.0000       0.981029        26.6952 
 247   0.0000       0.986250        26.8372 
 248   0.0000       0.990302        26.9475 
 249   0.0000       0.994678        27.0666 
 250   0.0000       0.999008        27.1844 
 251   0.0000       1.007432        27.4136 
 252   0.0000       1.009688        27.4750 
 253   0.0000       1.012663        27.5559 
 254   0.0000       1.019882        27.7524 
 255   0.0000       1.022170        27.8147 
 256   0.0000       1.026318        27.9275 
 257   0.0000       1.031181        28.0599 
 258   0.0000       1.036739        28.2111 
 259   0.0000       1.040935        28.3253 
 260   0.0000       1.046945        28.4888 
 261   0.0000       1.050190        28.5771 
 262   0.0000       1.052768        28.6473 
 263   0.0000       1.057416        28.7737 
 264   0.0000       1.061833        28.8939 
 265   0.0000       1.066618        29.0241 
 266   0.0000       1.071593        29.1595 
 267   0.0000       1.075672        29.2705 
 268   0.0000       1.084173        29.5018 
 269   0.0000       1.085682        29.5429 
 270   0.0000       1.092565        29.7302 
 271   0.0000       1.094229        29.7755 
 272   0.0000       1.095643        29.8140 
 273   0.0000       1.104250        30.0482 
 274   0.0000       1.109220        30.1834 
 275   0.0000       1.113002        30.2863 
 276   0.0000       1.119640        30.4670 
 277   0.0000       1.123370        30.5685 
 278   0.0000       1.125208        30.6185 
 279   0.0000       1.127847        30.6903 
 280   0.0000       1.132247        30.8100 
 281   0.0000       1.137430        30.9510 
 282   0.0000       1.143420        31.1140 
 283   0.0000       1.147662        31.2295 
 284   0.0000       1.154128        31.4054 
 285   0.0000       1.158226        31.5169 
 286   0.0000       1.160637        31.5825 
 287   0.0000       1.169811        31.8322 
 288   0.0000       1.171562        31.8798 
 289   0.0000       1.174724        31.9659 
 290   0.0000       1.177069        32.0297 
 291   0.0000       1.180697        32.1284 
 292   0.0000       1.188060        32.3288 
 293   0.0000       1.193269        32.4705 
 294   0.0000       1.195392        32.5283 
 295   0.0000       1.201780        32.7021 
 296   0.0000       1.206464        32.8296 
 297   0.0000       1.207809        32.8662 
 298   0.0000       1.210759        32.9464 
 299   0.0000       1.213997        33.0345 
 300   0.0000       1.216515        33.1031 
 301   0.0000       1.222108        33.2553 
 302   0.0000       1.228381        33.4260 
 303   0.0000       1.230414        33.4813 
 304   0.0000       1.238597        33.7039 
 305   0.0000       1.240039        33.7432 
 306   0.0000       1.242949        33.8224 
 307   0.0000       1.252397        34.0795 
 308   0.0000       1.256851        34.2006 
 309   0.0000       1.260055        34.2878 
 310   0.0000       1.268459        34.5165 
 311   0.0000       1.271159        34.5900 
 312   0.0000       1.276277        34.7293 
 313   0.0000       1.278727        34.7959 
 314   0.0000       1.282827        34.9075 
 315   0.0000       1.286846        35.0169 
 316   0.0000       1.290134        35.1063 
 317   0.0000       1.295714        35.2582 
 318   0.0000       1.300377        35.3851 
 319   0.0000       1.306902        35.5626 
 320   0.0000       1.310911        35.6717 
 321   0.0000       1.315650        35.8007 
 322   0.0000       1.319150        35.8959 
 323   0.0000       1.322774        35.9945 
 324   0.0000       1.326745        36.1026 
 325   0.0000       1.335166        36.3317 
 326   0.0000       1.339922        36.4611 
 327   0.0000       1.344568        36.5875 
 328   0.0000       1.353083        36.8193 
 329   0.0000       1.357041        36.9270 
 330   0.0000       1.362402        37.0729 
 331   0.0000       1.364490        37.1296 
 332   0.0000       1.365595        37.1597 
 333   0.0000       1.368463        37.2378 
 334   0.0000       1.372241        37.3406 
 335   0.0000       1.375844        37.4386 
 336   0.0000       1.381534        37.5934 
 337   0.0000       1.384691        37.6793 
 338   0.0000       1.396937        38.0126 
 339   0.0000       1.399216        38.0746 
 340   0.0000       1.405623        38.2490 
 341   0.0000       1.416888        38.5555 
 342   0.0000       1.422570        38.7101 
 343   0.0000       1.425350        38.7857 
 344   0.0000       1.431762        38.9602 
 345   0.0000       1.434794        39.0427 
 346   0.0000       1.439892        39.1814 
 347   0.0000       1.445673        39.3388 
 348   0.0000       1.450236        39.4629 
 349   0.0000       1.452793        39.5325 
 350   0.0000       1.459407        39.7125 
 351   0.0000       1.468403        39.9573 
 352   0.0000       1.471676        40.0463 
 353   0.0000       1.474172        40.1143 
 354   0.0000       1.485730        40.4288 
 355   0.0000       1.487546        40.4782 
 356   0.0000       1.499460        40.8024 
 357   0.0000       1.505907        40.9778 
 358   0.0000       1.509431        41.0737 
 359   0.0000       1.512931        41.1689 
 360   0.0000       1.517882        41.3037 
 361   0.0000       1.530130        41.6369 
 362   0.0000       1.535933        41.7949 
 363   0.0000       1.536917        41.8216 
 364   0.0000       1.547829        42.1186 
 365   0.0000       1.552974        42.2586 
 366   0.0000       1.562983        42.5309 
 367   0.0000       1.569277        42.7022 
 368   0.0000       1.585802        43.1519 
 369   0.0000       1.596525        43.4436 
 370   0.0000       1.605817        43.6965 
 371   0.0000       1.608990        43.7828 
 372   0.0000       1.617165        44.0053 
 373   0.0000       1.625570        44.2340 
 374   0.0000       1.631177        44.3866 
 375   0.0000       1.637190        44.5502 
 376   0.0000       1.646163        44.7944 
 377   0.0000       1.651668        44.9442 
 378   0.0000       1.655256        45.0418 
 379   0.0000       1.662208        45.2310 
 380   0.0000       1.673129        45.5282 
 381   0.0000       1.681316        45.7509 
 382   0.0000       1.684505        45.8377 
 383   0.0000       1.691447        46.0266 
 384   0.0000       1.697294        46.1857 
 385   0.0000       1.701109        46.2895 
 386   0.0000       1.706363        46.4325 
 387   0.0000       1.715408        46.6786 
 388   0.0000       1.722082        46.8602 
 389   0.0000       1.733778        47.1785 
 390   0.0000       1.741706        47.3942 
 391   0.0000       1.745053        47.4853 
 392   0.0000       1.756990        47.8101 
 393   0.0000       1.758025        47.8383 
 394   0.0000       1.767273        48.0899 
 395   0.0000       1.771856        48.2147 
 396   0.0000       1.774934        48.2984 
 397   0.0000       1.785244        48.5790 
 398   0.0000       1.788461        48.6665 
 399   0.0000       1.791401        48.7465 
 400   0.0000       1.797042        48.9000 
 401   0.0000       1.802845        49.0579 
 402   0.0000       1.806683        49.1624 
 403   0.0000       1.817481        49.4562 
 404   0.0000       1.819758        49.5181 
 405   0.0000       1.824380        49.6439 
 406   0.0000       1.826988        49.7149 
 407   0.0000       1.842574        50.1390 
 408   0.0000       1.844450        50.1900 
 409   0.0000       1.853297        50.4308 
 410   0.0000       1.859128        50.5894 
 411   0.0000       1.871847        50.9356 
 412   0.0000       1.873015        50.9673 
 413   0.0000       1.874186        50.9992 
 414   0.0000       1.886717        51.3402 
 415   0.0000       1.888560        51.3903 
 416   0.0000       1.901006        51.7290 
 417   0.0000       1.907228        51.8983 
 418   0.0000       1.908188        51.9244 
 419   0.0000       1.917705        52.1834 
 420   0.0000       1.923173        52.3322 
 421   0.0000       1.925310        52.3904 
 422   0.0000       1.938889        52.7599 
 423   0.0000       1.946133        52.9570 
 424   0.0000       1.951264        53.0966 
 425   0.0000       1.956444        53.2376 
 426   0.0000       1.962073        53.3907 
 427   0.0000       1.970430        53.6181 
 428   0.0000       1.973479        53.7011 
 429   0.0000       1.978289        53.8320 
 430   0.0000       1.985635        54.0319 
 431   0.0000       1.990670        54.1689 
 432   0.0000       1.996228        54.3201 
 433   0.0000       1.999171        54.4002 
 434   0.0000       2.009993        54.6947 
 435   0.0000       2.012680        54.7678 
 436   0.0000       2.021183        54.9992 
 437   0.0000       2.023361        55.0584 
 438   0.0000       2.034459        55.3604 
 439   0.0000       2.035938        55.4007 
 440   0.0000       2.042560        55.5809 
 441   0.0000       2.044055        55.6216 
 442   0.0000       2.052458        55.8502 
 443   0.0000       2.056144        55.9505 
 444   0.0000       2.059376        56.0385 
 445   0.0000       2.069859        56.3237 
 446   0.0000       2.073216        56.4151 
 447   0.0000       2.080189        56.6048 
 448   0.0000       2.081821        56.6492 
 449   0.0000       2.089412        56.8558 
 450   0.0000       2.093998        56.9806 
 451   0.0000       2.096894        57.0594 
 452   0.0000       2.100337        57.1531 
 453   0.0000       2.105253        57.2868 
 454   0.0000       2.111937        57.4687 
 455   0.0000       2.116315        57.5879 
 456   0.0000       2.123981        57.7965 
 457   0.0000       2.126712        57.8708 
 458   0.0000       2.129224        57.9391 
 459   0.0000       2.136901        58.1480 
 460   0.0000       2.139037        58.2062 
 461   0.0000       2.141888        58.2837 
 462   0.0000       2.148940        58.4756 
 463   0.0000       2.156133        58.6714 
 464   0.0000       2.162765        58.8518 
 465   0.0000       2.166695        58.9588 
 466   0.0000       2.174046        59.1588 
 467   0.0000       2.176113        59.2151 
 468   0.0000       2.178673        59.2847 
 469   0.0000       2.188134        59.5422 
 470   0.0000       2.189040        59.5668 
 471   0.0000       2.193678        59.6930 
 472   0.0000       2.194786        59.7232 
 473   0.0000       2.205010        60.0014 
 474   0.0000       2.207742        60.0757 
 475   0.0000       2.210047        60.1384 
 476   0.0000       2.216557        60.3156 
 477   0.0000       2.220567        60.4247 
 478   0.0000       2.223865        60.5144 
 479   0.0000       2.228683        60.6455 
 480   0.0000       2.230320        60.6901 
 481   0.0000       2.236760        60.8653 
 482   0.0000       2.245451        61.1018 
 483   0.0000       2.253110        61.3102 
 484   0.0000       2.259547        61.4854 
 485   0.0000       2.264760        61.6273 
 486   0.0000       2.266853        61.6842 
 487   0.0000       2.267810        61.7102 
 488   0.0000       2.273658        61.8694 
 489   0.0000       2.277665        61.9784 
 490   0.0000       2.279938        62.0403 
 491   0.0000       2.283926        62.1488 
 492   0.0000       2.290524        62.3283 
 493   0.0000       2.294417        62.4343 
 494   0.0000       2.301467        62.6261 
 495   0.0000       2.303621        62.6847 
 496   0.0000       2.307205        62.7822 
 497   0.0000       2.310026        62.8590 
 498   0.0000       2.316603        63.0380 
 499   0.0000       2.323085        63.2143 
 500   0.0000       2.327729        63.3407 
 501   0.0000       2.333043        63.4853 
 502   0.0000       2.338468        63.6330 
 503   0.0000       2.341881        63.7258 
 504   0.0000       2.348667        63.9105 
 505   0.0000       2.350537        63.9614 
 506   0.0000       2.362733        64.2932 
 507   0.0000       2.363472        64.3133 
 508   0.0000       2.371412        64.5294 
 509   0.0000       2.372404        64.5564 
 510   0.0000       2.373818        64.5949 
 511   0.0000       2.381630        64.8074 
 512   0.0000       2.387472        64.9664 
 513   0.0000       2.388781        65.0020 
 514   0.0000       2.390856        65.0585 
 515   0.0000       2.395754        65.1918 
 516   0.0000       2.403005        65.3891 
 517   0.0000       2.404967        65.4425 
 518   0.0000       2.412632        65.6511 
 519   0.0000       2.422538        65.9206 
 520   0.0000       2.427467        66.0547 
 521   0.0000       2.432685        66.1967 
 522   0.0000       2.436454        66.2993 
 523   0.0000       2.436903        66.3115 
 524   0.0000       2.442043        66.4514 
 525   0.0000       2.445867        66.5554 
 526   0.0000       2.453034        66.7504 
 527   0.0000       2.461811        66.9893 
 528   0.0000       2.464879        67.0728 
 529   0.0000       2.466423        67.1148 
 530   0.0000       2.468746        67.1780 
 531   0.0000       2.474996        67.3481 
 532   0.0000       2.481290        67.5193 
 533   0.0000       2.487132        67.6783 
 534   0.0000       2.495574        67.9080 
 535   0.0000       2.500982        68.0552 
 536   0.0000       2.501698        68.0747 
 537   0.0000       2.506787        68.2132 
 538   0.0000       2.508272        68.2535 
 539   0.0000       2.512278        68.3626 
 540   0.0000       2.523069        68.6562 
 541   0.0000       2.528713        68.8098 
 542   0.0000       2.536186        69.0131 
 543   0.0000       2.539987        69.1166 
 544   0.0000       2.544253        69.2327 
 545   0.0000       2.545629        69.2701 
 546   0.0000       2.551156        69.4205 
 547   0.0000       2.555260        69.5322 
 548   0.0000       2.559851        69.6571 
 549   0.0000       2.566889        69.8486 
 550   0.0000       2.570218        69.9392 
 551   0.0000       2.574102        70.0449 
 552   0.0000       2.575781        70.0906 
 553   0.0000       2.585963        70.3676 
 554   0.0000       2.587953        70.4218 
 555   0.0000       2.591298        70.5128 
 556   0.0000       2.594676        70.6047 
 557   0.0000       2.599567        70.7378 
 558   0.0000       2.602796        70.8257 
 559   0.0000       2.605916        70.9106 
 560   0.0000       2.613013        71.1037 
 561   0.0000       2.616673        71.2033 
 562   0.0000       2.623408        71.3866 
 563   0.0000       2.627668        71.5025 
 564   0.0000       2.628268        71.5188 
 565   0.0000       2.632593        71.6365 
 566   0.0000       2.640286        71.8458 
 567   0.0000       2.645429        71.9858 
 568   0.0000       2.647684        72.0472 
 569   0.0000       2.650217        72.1161 
 570   0.0000       2.652127        72.1680 
 571   0.0000       2.666127        72.5490 
 572   0.0000       2.666515        72.5596 
 573   0.0000       2.667986        72.5996 
 574   0.0000       2.677787        72.8663 
 575   0.0000       2.681921        72.9788 
 576   0.0000       2.686758        73.1104 
 577   0.0000       2.688995        73.1713 
 578   0.0000       2.694904        73.3321 
 579   0.0000       2.696495        73.3754 
 580   0.0000       2.705333        73.6159 
 581   0.0000       2.707529        73.6756 
 582   0.0000       2.715985        73.9057 
 583   0.0000       2.718086        73.9629 
 584   0.0000       2.721982        74.0689 
 585   0.0000       2.724586        74.1398 
 586   0.0000       2.729229        74.2661 
 587   0.0000       2.736665        74.4684 
 588   0.0000       2.741371        74.5965 
 589   0.0000       2.743628        74.6579 
 590   0.0000       2.750775        74.8524 
 591   0.0000       2.752151        74.8898 
 592   0.0000       2.760039        75.1045 
 593   0.0000       2.762116        75.1610 
 594   0.0000       2.767452        75.3062 
 595   0.0000       2.768021        75.3217 
 596   0.0000       2.777976        75.5926 
 597   0.0000       2.782502        75.7157 
 598   0.0000       2.785882        75.8077 
 599   0.0000       2.790135        75.9234 
 600   0.0000       2.795169        76.0604 
 601   0.0000       2.797354        76.1199 
 602   0.0000       2.804815        76.3229 
 603   0.0000       2.811102        76.4940 
 604   0.0000       2.823821        76.8401 
 605   0.0000       2.829732        77.0009 
 606   0.0000       2.832553        77.0777 
 607   0.0000       2.836623        77.1884 
 608   0.0000       2.840244        77.2870 
 609   0.0000       2.847694        77.4897 
 610   0.0000       2.852608        77.6234 
 611   0.0000       2.854375        77.6715 
 612   0.0000       2.856486        77.7289 
 613   0.0000       2.866750        78.0082 
 614   0.0000       2.870033        78.0976 
 615   0.0000       2.873204        78.1839 
 616   0.0000       2.877432        78.2989 
 617   0.0000       2.883898        78.4749 
 618   0.0000       2.888946        78.6122 
 619   0.0000       2.896565        78.8195 
 620   0.0000       2.898130        78.8621 
 621   0.0000       2.902051        78.9688 
 622   0.0000       2.912450        79.2518 
 623   0.0000       2.916516        79.3624 
 624   0.0000       2.924483        79.5792 
 625   0.0000       2.925025        79.5940 
 626   0.0000       2.929586        79.7181 
 627   0.0000       2.934825        79.8607 
 628   0.0000       2.944030        80.1111 
 629   0.0000       2.950176        80.2784 
 630   0.0000       2.954472        80.3953 
 631   0.0000       2.959248        80.5252 
 632   0.0000       2.961756        80.5935 
 633   0.0000       2.971184        80.8500 
 634   0.0000       2.974200        80.9321 
 635   0.0000       2.975737        80.9739 
 636   0.0000       2.987218        81.2863 
 637   0.0000       2.992464        81.4291 
 638   0.0000       2.996366        81.5353 
 639   0.0000       2.997324        81.5613 
 640   0.0000       3.001992        81.6884 
 641   0.0000       3.007305        81.8329 
 642   0.0000       3.015036        82.0433 
 643   0.0000       3.020012        82.1787 
 644   0.0000       3.025891        82.3387 
 645   0.0000       3.028886        82.4202 
 646   0.0000       3.033103        82.5349 
 647   0.0000       3.040352        82.7322 
 648   0.0000       3.040830        82.7452 
 649   0.0000       3.048656        82.9581 
 650   0.0000       3.054118        83.1068 
 651   0.0000       3.059436        83.2515 
 652   0.0000       3.062600        83.3376 
 653   0.0000       3.080026        83.8118 
 654   0.0000       3.084827        83.9424 
 655   0.0000       3.087915        84.0264 
 656   0.0000       3.091121        84.1137 
 657   0.0000       3.096801        84.2682 
 658   0.0000       3.102378        84.4200 
 659   0.0000       3.106354        84.5282 
 660   0.0000       3.116859        84.8140 
 661   0.0000       3.119864        84.8958 
 662   0.0000       3.126186        85.0679 
 663   0.0000       3.134022        85.2811 
 664   0.0000       3.135852        85.3309 
 665   0.0000       3.143291        85.5333 
 666   0.0000       3.145958        85.6059 
 667   0.0000       3.151693        85.7619 
 668   0.0000       3.157087        85.9087 
 669   0.0000       3.158690        85.9523 
 670   0.0000       3.168279        86.2133 
 671   0.0000       3.171343        86.2966 
 672   0.0000       3.182247        86.5933 
 673   0.0000       3.187162        86.7271 
 674   0.0000       3.193955        86.9119 
 675   0.0000       3.203378        87.1683 
 676   0.0000       3.205683        87.2311 
 677   0.0000       3.208699        87.3132 
 678   0.0000       3.213041        87.4313 
 679   0.0000       3.220169        87.6253 
 680   0.0000       3.222846        87.6981 
 681   0.0000       3.226965        87.8102 
 682   0.0000       3.234231        88.0079 
 683   0.0000       3.235641        88.0463 
 684   0.0000       3.239219        88.1436 
 685   0.0000       3.246006        88.3283 
 686   0.0000       3.261198        88.7417 
 687   0.0000       3.269989        88.9809 
 688   0.0000       3.276731        89.1644 
 689   0.0000       3.283517        89.3490 
 690   0.0000       3.286638        89.4340 
 691   0.0000       3.294672        89.6526 
 692   0.0000       3.295870        89.6852 
 693   0.0000       3.304477        89.9194 
 694   0.0000       3.307899        90.0125 
 695   0.0000       3.316164        90.2374 
 696   0.0000       3.319033        90.3155 
 697   0.0000       3.322047        90.3975 
 698   0.0000       3.324446        90.4628 
 699   0.0000       3.332888        90.6925 
 700   0.0000       3.341047        90.9145 
 701   0.0000       3.347582        91.0923 
 702   0.0000       3.348313        91.1122 
 703   0.0000       3.357551        91.3636 
 704   0.0000       3.362958        91.5107 
 705   0.0000       3.372495        91.7703 
 706   0.0000       3.375206        91.8440 
 707   0.0000       3.376408        91.8767 
 708   0.0000       3.386983        92.1645 
 709   0.0000       3.391375        92.2840 
 710   0.0000       3.396202        92.4154 
 711   0.0000       3.398412        92.4755 
 712   0.0000       3.405954        92.6807 
 713   0.0000       3.407086        92.7115 
 714   0.0000       3.421959        93.1162 
 715   0.0000       3.423835        93.1673 
 716   0.0000       3.425230        93.2053 
 717   0.0000       3.432972        93.4159 
 718   0.0000       3.441107        93.6373 
 719   0.0000       3.446820        93.7927 
 720   0.0000       3.448818        93.8471 
 721   0.0000       3.457302        94.0780 
 722   0.0000       3.462870        94.2295 
 723   0.0000       3.470869        94.4472 
 724   0.0000       3.474646        94.5499 
 725   0.0000       3.477472        94.6268 
 726   0.0000       3.485928        94.8569 
 727   0.0000       3.496103        95.1338 
 728   0.0000       3.501464        95.2797 
 729   0.0000       3.504271        95.3561 
 730   0.0000       3.509748        95.5051 
 731   0.0000       3.515604        95.6645 
 732   0.0000       3.527371        95.9847 
 733   0.0000       3.531186        96.0885 
 734   0.0000       3.538538        96.2885 
 735   0.0000       3.539511        96.3150 
 736   0.0000       3.541885        96.3796 
 737   0.0000       3.543334        96.4190 
 738   0.0000       3.549539        96.5879 
 739   0.0000       3.559807        96.8673 
 740   0.0000       3.567962        97.0892 
 741   0.0000       3.573101        97.2290 
 742   0.0000       3.578700        97.3814 
 743   0.0000       3.585633        97.5700 
 744   0.0000       3.597501        97.8930 
 745   0.0000       3.607420        98.1629 
 746   0.0000       3.611143        98.2642 
 747   0.0000       3.618930        98.4761 
 748   0.0000       3.625822        98.6636 
 749   0.0000       3.632128        98.8352 
 750   0.0000       3.637860        98.9912 
 751   0.0000       3.641962        99.1028 
 752   0.0000       3.651645        99.3663 
 753   0.0000       3.656444        99.4969 
 754   0.0000       3.664232        99.7088 
 755   0.0000       3.678716       100.1030 
 756   0.0000       3.690017       100.4105 
 757   0.0000       3.692504       100.4781 
 758   0.0000       3.696355       100.5829 
 759   0.0000       3.699520       100.6691 
 760   0.0000       3.712616       101.0254 
 761   0.0000       3.716121       101.1208 
 762   0.0000       3.718871       101.1956 
 763   0.0000       3.730914       101.5233 
 764   0.0000       3.732556       101.5680 
 765   0.0000       3.740394       101.7813 
 766   0.0000       3.748040       101.9893 
 767   0.0000       3.753325       102.1332 
 768   0.0000       3.757485       102.2464 
 769   0.0000       3.771707       102.6334 
 770   0.0000       3.772708       102.6606 
 771   0.0000       3.779736       102.8518 
 772   0.0000       3.784501       102.9815 
 773   0.0000       3.792889       103.2097 
 774   0.0000       3.797941       103.3472 
 775   0.0000       3.801765       103.4513 
 776   0.0000       3.808241       103.6275 
 777   0.0000       3.817782       103.8871 
 778   0.0000       3.819106       103.9232 
 779   0.0000       3.822854       104.0251 
 780   0.0000       3.831638       104.2642 
 781   0.0000       3.836904       104.4075 
 782   0.0000       3.845573       104.6434 
 783   0.0000       3.847899       104.7066 
 784   0.0000       3.855162       104.9043 
 785   0.0000       3.860174       105.0407 
 786   0.0000       3.869510       105.2947 
 787   0.0000       3.872787       105.3839 
 788   0.0000       3.885088       105.7186 
 789   0.0000       3.886289       105.7513 
 790   0.0000       3.893108       105.9369 
 791   0.0000       3.899524       106.1115 
 792   0.0000       3.900874       106.1482 
 793   0.0000       3.907520       106.3290 
 794   0.0000       3.913541       106.4929 
 795   0.0000       3.922001       106.7231 
 796   0.0000       3.924050       106.7788 
 797   0.0000       3.928529       106.9007 
 798   0.0000       3.932487       107.0084 
 799   0.0000       3.947178       107.4082 
 800   0.0000       3.950748       107.5053 
 801   0.0000       3.955200       107.6265 
 802   0.0000       3.964237       107.8724 
 803   0.0000       3.969526       108.0163 
 804   0.0000       3.974599       108.1543 
 805   0.0000       3.982173       108.3604 
 806   0.0000       3.984792       108.4317 
 807   0.0000       3.989888       108.5704 
 808   0.0000       4.002249       108.9067 
 809   0.0000       4.010975       109.1442 
 810   0.0000       4.015071       109.2556 
 811   0.0000       4.028142       109.6113 
 812   0.0000       4.031464       109.7017 
[...]
    TCutPNO            =        1.000e-07
    TCutPNOSingles     =        3.000e-09
    TCutMP2Pairs       =        1.000e-06
    TCutMKN            =        1.000e-03
    TCutDO             =        5.000e-03

Pair selection                          .... not used
Type of local MP2 treatment                 .... full local PMP2
Strategy for PNO selection                  .... occupation number selection
Pair density normalization                  .... MP2 norm
Spin component scaling                      .... not used

PASS-1: Formation of initial guess LMP2 amplitudes
Initial amplitudes guess done. Entering LMP2 iteration loop:
   Max. no of iterations          ...  50
   Energy convergence tolerance   ...    1.0e-07
   Residual convergence tolerance ...    5.0e-07
   Fock matrix cutoff             ...    1.0e-05 Eh
   DIIS convergence acceleration parameters:
        Max # vectors in DIIS     ... 7
        Start iteration of DIIS   ... 0
        Levelshift                ... 2.000e-01
        Damping factor 1          ... 5.000e-01
        Damping factor 2          ... 1.000e+00
   L-MP2 PNO cut-off              ...   1.0e-09
   L-MP2 PNO cut-off (core)       ...   1.0e-11
                           *** Turning on DIIS ***
LMP2-Iter=   0:  ELMP2= -4.551518202322  DE=   1.0e-01 RMAX=   1.8e-02
LMP2-Iter=   1:  ELMP2= -4.606223397565  DE=   5.5e-02 RMAX=   8.5e-03
LMP2-Iter=   2:  ELMP2= -4.617153068287  DE=   1.1e-02 RMAX=   3.4e-03
LMP2-Iter=   3:  ELMP2= -4.618642263831  DE=   1.5e-03 RMAX=   1.2e-03
LMP2-Iter=   4:  ELMP2= -4.618647994233  DE=   5.7e-06 RMAX=   3.3e-04
LMP2-Iter=   5:  ELMP2= -4.618607876284  DE=   4.0e-05 RMAX=   1.1e-04
LMP2-Iter=   6:  ELMP2= -4.618601077330  DE=   6.8e-06 RMAX=   3.2e-05
LMP2-Iter=   7:  ELMP2= -4.618601740409  DE=   6.6e-07 RMAX=   1.0e-05
LMP2-Iter=   8:  ELMP2= -4.618602373920  DE=   6.3e-07 RMAX=   3.0e-06
LMP2-Iter=   9:  ELMP2= -4.618602331243  DE=   4.3e-08 RMAX=   9.6e-07
LMP2-Iter=  10:  ELMP2= -4.618602337121  DE=   5.9e-09 RMAX=   2.2e-07
LMP2-Iter=  11:  ELMP2= -4.618602313865  DE=   2.3e-08 RMAX=   5.2e-08 => CONVERGED
PASS-2: Formation of Pair natural orbitals
   .... Finished loop over pairs

 PNO Occupation Number Statistics: 
  | Av. % of trace(Dij) retained        ...  97.511930436085
  | sigma^2 in % of trace(Dij) retained ...   1.47e+01
  | Av. % of trace(Di) retained         ...  99.999518915334
  | sigma^2 in % of trace(Di) retained  ...   1.85e-08
 Distributions of % trace(Dij) recovered:
  |       >= 99.9  ...   245 ( 14.3 % of all pairs)
  |   [70.0, 80.0) ...    17 (  1.0 % of all pairs)
  |   [80.0, 90.0) ...    81 (  4.7 % of all pairs)
  |   [90.0, 99.0) ...   819 ( 47.9 % of all pairs)
  |   [99.0, 99.9) ...   549 ( 32.1 % of all pairs)
 Distributions of % trace(Di) recovered :
  |       >= 99.9  ...    64 (100.0 % of all I-pairs )

Making pair pair interaction lists          ... done

                       ===========================
                       1120 OF 1711 PAIRS ARE KEPT
                       ===========================

Total time spent in the initial guess                 ...  1601.018 sec
L-MP2 correlation energy (all non-screened pairs)     ...      -4.618602313865 Eh
L-MP2 PNO error correction                            ...      -0.000325803424 Eh
                                                          --------------------
Initial total L-MP2 energy (non-screened pairs)       ...      -4.618928117289 Eh

Initial PNO correlation energy                        ...      -4.607406832795 Eh
sum of pair energies estimated for screened out pairs ...      -0.000151736304 Eh
sum of MP2 pair energies for pairs that were not kept ...      -0.002661722206 Eh
sum of PNO error estimates for the kept pairs         ...      -0.009214872721 Eh
                                                          --------------------
sum of all corrections                                         -0.012028331231
Initial total correlation energy                               -4.619435164026
Thresholds for map construction and integral transformation for fine MP2 and CCSD(T) calculation:
   TCutMKN   ...     1.0e-03
   TCutDO    ...     5.0e-03
   TCutPairs ...     1.0e-05
   TCutCMO   ...     1.0e-03
   TCutCPAO  ...     1.0e-03

Time for aux screen maps:            0.027
Time for maps after fine MP2:            0.223
-----------------------------
LOCAL RI TRANSFORMATION (IJV)
-----------------------------

Orbital window:      23 to 86
Basis functions:   1865 (545 shells)
Aux. functions:    4136 (990 shells)
Use SHARK:           on

Processing maps (0.0 sec)
Average map sizes:
   Aux shells -> MOs(i)           53.6
   Aux shells -> MOs(j)           64.0
   MOs        -> AO shells       462.7

Calculating integrals (14.0 sec, 108.860 MB)
Sorting integrals (0.3 sec, 108.814 MB)
Total time for the integral transformation: 14.3 sec
--------------------------------
LOCAL RI TRANSFORMATION (VABPAO)
--------------------------------

Number of PAOs:    1865
Basis functions:   1865 (545 shells)
Aux. functions:    4136 (990 shells)
Use SHARK:           on

Processing maps (0.0 sec)
Average map sizes:
   Aux shells -> PAOs           1830.3
   PAOs       -> AO shells       526.2

Calculating integrals (455.2 sec, 105907.400 MB)
Finished


-------------------------------------
Pair Pair Term precalculation with     
RI-(ij|mn) and (im|jn) transformation  
ON THE FLY                             
-------------------------------------

   IBatch   1 (of   5)              ... done (  557.371 sec)
   IBatch   2 (of   5)              ... done (  476.711 sec)
   IBatch   3 (of   5)              ... done (  691.768 sec)
   IBatch   4 (of   5)              ... done (  750.324 sec)
   IBatch   5 (of   5)              ... done (  941.760 sec)
Total EXT                           ...        3417.936 sec

---------------------
RI-PNO TRANSFORMATION
---------------------

Total Number of PNOs                   ... 42372
Average number of PNOs per pair        ...    37
Maximal number of PNOs per pair        ...   120
   #pairs with  1 -  5 PNOs   :    0
   #pairs with  6 - 10 PNOs   :  228
   #pairs with 11 - 15 PNOs   :  125
   #pairs with 16 - 20 PNOs   :   82
   #pairs with 21 - 25 PNOs   :   64
   #pairs with 26 - 30 PNOs   :   67
   #pairs with 31 - 35 PNOs   :   72
   #pairs with 36 - 40 PNOs   :   65
   #pairs with 41 - 45 PNOs   :   42
   #pairs with 46 - 50 PNOs   :   28
   #pairs with 51 - 55 PNOs   :   41
   #pairs with 56 - 60 PNOs   :   45
   #pairs with 61 - 65 PNOs   :   32
   #pairs with 66 - 70 PNOs   :   23
   #pairs with 71 - 75 PNOs   :   12
   #pairs with 76 - 80 PNOs   :   53
   #pairs with 81 - 85 PNOs   :   42
   #pairs with 86 - 90 PNOs   :   26
   #pairs with 91 - 95 PNOs   :   43
   #pairs with > 96 PNOs      :   30

Generation of (ij|ab)[P] integrals            ... on
Generation of (ia|bc)[P],(ja|bc)[P] integrals ... on
Storage of 3 and 4 external integrals         ... on
Generation of ALL (ka|bc)[P] integrals        ... on
Keep RI integrals in memory                   ... off

Ibatch:  1 (of  1)
Starting 2-4 index PNO integral generation ... done

Timings:
Total PNO integral transformation time     ...       1973.012 sec
Size of the 3-external file                ...      1408 MB
Size of the 4-external file                ...     14223 MB
Size of the IKJL file                      ...         0 MB
Size of the all 3-external file            ...     38545 MB
Size of the 1-external file                ...        54 MB

Making pair/pair overlap matrices          ... done (  450.824 sec)
Size of the pair overlap file              ... 9027 MB
Redoing the guess amplitudes               ... done (    0.215 sec)

-------------------------
FINAL STARTUP INFORMATION
-------------------------

E(0)                                       ...  -1154.802919989
E(L-MP2)                                   ...     -4.618928117
E(L-MP2) including corrections             ...     -4.619435164
Initial E(tot)                             ...  -1159.422355153
<T|T>                                      ...      1.124561408
Number of pairs included                   ... 1120
Total number of pairs                      ... 2080

------------------------------------------------
                  RHF COUPLED CLUSTER ITERATIONS
------------------------------------------------

Number of PNO amplitudes to be optimized   ...      2511236
Number of non-PNO amplitudes               ...   3540638080
Untruncated number of regular amplitudes   ...   6575470720

Iter       E(tot)           E(Corr)          Delta-E          Residual     Time
  0  -1159.250331613     -4.435383294      0.183544824      0.014384247  214.90
                           *** Turning on DIIS ***
  1  -1159.316066988     -4.501118668     -0.065735374      0.012237448  189.53
  2  -1159.415328448     -4.600380128     -0.099261461      0.006277426  207.76
  3  -1159.439374047     -4.624425727     -0.024045598      0.003715869  192.35
  4  -1159.446464253     -4.631515933     -0.007090206      0.001784087  194.71
  5  -1159.448651456     -4.633703136     -0.002187203      0.000820048  203.96
  6  -1159.449174322     -4.634226002     -0.000522866      0.000407956  199.81
  7  -1159.449281159     -4.634332840     -0.000106837      0.000190561  196.15
  8  -1159.449301326     -4.634353006     -0.000020166      0.000117547  195.05
  9  -1159.449276683     -4.634328363      0.000024643      0.000062504  200.13
 10  -1159.449281919     -4.634333599     -0.000005236      0.000038664  191.56
 11  -1159.449279049     -4.634330729      0.000002870      0.000025595  191.92
 12  -1159.449278237     -4.634329917      0.000000812      0.000015903  199.82
 13  -1159.449275749     -4.634327429      0.000002489      0.000009644  192.51
               --- The Coupled-Cluster iterations have converged ---

----------------------
COUPLED CLUSTER ENERGY
----------------------

E(0)                                       ...  -1154.802919989
E(CORR)(strong-pairs)                      ...     -4.634327429
E(CORR)(weak-pairs)                        ...     -0.012028331
E(CORR)(corrected)                         ...     -4.646355760
E(TOT)                                     ...  -1159.449275749
Singles Norm <S|S>**1/2                    ...      0.154742565  
T1 diagnostic                              ...      0.013677440  

------------------
LARGEST AMPLITUDES
------------------
  65-> 87  65-> 87       0.062411
  72-> 87  72-> 87       0.056732
  71-> 87  71-> 87       0.054870
  64-> 87  64-> 87       0.052103
  62-> 87  62-> 87       0.049631
  65-> 87  64-> 87       0.047897
  61-> 87  61-> 87       0.046929
  72-> 87  71-> 87       0.046682
  55-> 90  55-> 90       0.045507
  62-> 87  61-> 87       0.040584
  42-> 87  42-> 87       0.040542
  51-> 89  51-> 89       0.036934
  85-> 87  85-> 87       0.036156
  80-> 87  80-> 87       0.035982
  78-> 87  78-> 87       0.035664
  63-> 91  63-> 91       0.035499


-------------------------------------------
DLPNO BASED TRIPLES CORRECTION
-------------------------------------------

Singles multiplier          ...  1.000000
TCutTNO                     ... 1.000e-09
TCutMP2Pairs                ... 1.000e-06
TCutDOStrong                ... 1.000e-02
TCutMKNStrong               ... 1.000e-02
TCutDOWeak                  ... 2.000e-02
TCutMKNWeak                 ... 1.000e-01

Fragment selection                          .... not used
Fock matrix occ-virt block is zero --> Setting DT_in_Triples to false.
Number of Triples that are to be computed   ...     19159

 . . . . . . . . .
10% done  
20% done               (   7034.770 sec)
 . . . . . . . . .
30% done  
40% done  
50% done  
60% done  
70% done               (  12117.862 sec)
 . . . . . . . . .
80% done  
90% done               (   4382.272 sec)
Triples timings:
Total time for T0               ... 26063.270 sec
Total time for Iterative (T)    ...     0.000 sec
Total time of overall (T)       ... 26788.807 sec

Triples List generation         ...     0.000 sec
TNO generation                  ...  2527.743 sec
Pair density generation         ...     0.162 sec
Look up tables                  ...     0.000 sec
Generating 3-index integrals    ... 19902.563 sec
  Make 4-ind.int. from 3-ind.int...   261.093 sec
  Projecting amplitudes (D + S) ...  3173.147 sec
  Downprojecting integrals      ...     0.013 sec
  Energy contr. (sum over a,b,c)...    14.264 sec
Fitting ET(->0)                 ...     0.000 sec

Everything after 3-index        ...  3632.340 sec

Timing details:
 TNO integrals                  ... 20150.655 sec
   Reading 3-index integrals    ...   608.841 sec
   Sorting integrals            ...  1554.259 sec
       Sorting integrals 1      ...     0.010 sec
       Sorting integrals 2      ...  1526.176 sec
       Sorting integrals 3      ...     7.758 sec
       Sorting integrals 4      ...     0.690 sec
       Sorting integrals 5      ...     5.421 sec
       Sorting integrals 6      ...    14.204 sec
   Calculating local VM**-1/2   ...    22.212 sec
   Orthogonal. integrals        ...    31.523 sec
   Multipl. 3-index integrals   ... 17933.820 sec
   All concerning IRIab (w/TNO) ...   184.368 sec

 Calculate W0/W1                ...   183.759 sec
 W 3-ext contribution           ...   121.293 sec
 W 3-int contribution           ...    48.171 sec
 Sorting W                      ...    12.144 sec

 V exchange contribution        ...     3.923 sec

 Timings for Triples without generation
     of 3-index integrals       ...  3632.320 sec
       0 weak pairs             ...  2615.682 sec
       1 weak pair              ...  1016.638 sec
       2 weak pairs             ...     0.000 sec
       3 weak pairs             ...     0.000 sec
  Extra time for extrapolation  ...     0.000 sec

Number of Triples   (0, 1, 2, 3 weak pairs; overall):  11485    7674       0       0  ( 19159)
Number of Atoms     (0, 1, 2, 3 weak pairs; overall):   23.4    23.4     0.0     0.0  (    43)
Number of PAOs      (0, 1, 2, 3 weak pairs; overall): 1064.5  1079.9     0.0     0.0  (  1865)
Number of AuxFcns   (0, 1, 2, 3 weak pairs; overall):  903.1   633.5     0.0     0.0  (  4136)
Number of TNOs      (0, 1, 2, 3 weak pairs         ):  106.0    56.4     0.0     0.0
Aver. Number of NTNO, Atoms, PAOs, AuxFcns / Triples:  19159    86.2    23.4  1070.7   795.1

Triples Correction (T)                     ...     -0.211193710
Final correlation energy                   ...     -4.857549470
E(CCSD)                                    ...  -1159.449275749
E(CCSD(T))                                 ...  -1159.660469459



--------------------------------------------------------------------------------
                                    TIMINGS
--------------------------------------------------------------------------------


Total execution time                   ...    38482.476 sec

Localization of occupied MO's          ...       13.913 sec (  0.0%)
Fock Matrix Formation                  ...      346.940 sec (  0.9%)
Global overlap, Fock, MKN matrices     ...       15.555 sec (  0.0%)
Differential overlap integrals         ...        4.646 sec (  0.0%)
Organizing maps                        ...        0.591 sec (  0.0%)
RI 3-index integral generations        ...      528.541 sec (  1.4%)
RI-PNO integral transformation         ...     5949.830 sec ( 15.5%)
Initial Guess                          ...     2059.319 sec (  5.4%)
DIIS Solver                            ...       29.956 sec (  0.1%)
State Vector Update                    ...        0.302 sec (  0.0%)
Sigma-vector construction              ...     2757.116 sec (  7.2%)
  <0|H|D>                              ...        0.001 sec (  0.0% of sigma)
  <D|H|D>(0-ext)                       ...      206.776 sec (  7.5% of sigma)
  <D|H|D>(2-ext Fock)                  ...        0.296 sec (  0.0% of sigma)
  <D|H|D>(2-ext)                       ...     1113.449 sec ( 40.4% of sigma)
  <D|H|D>(4-ext)                       ...      102.503 sec (  3.7% of sigma)
  <D|H|D>(4-ext-corr)                  ...      578.412 sec ( 21.0% of sigma)
  CCSD doubles correction              ...        6.538 sec (  0.2% of sigma)
  <S|H|S>                              ...        7.372 sec (  0.3% of sigma)
  <S|H|D>(1-ext)                       ...        8.359 sec (  0.3% of sigma)
  <D|H|S>(1-ext)                       ...        0.293 sec (  0.0% of sigma)
  <S|H|D>(3-ext)                       ...        3.255 sec (  0.1% of sigma)
  CCSD singles correction              ...        0.002 sec (  0.0% of sigma)
  Fock-dressing                        ...      491.385 sec ( 17.8% of sigma)
  Singles amplitudes                   ...       62.195 sec (  2.3% of sigma)
  (ik|jl)-dressing                     ...       68.685 sec (  2.5% of sigma)
  (ij|ab),(ia|jb)-dressing             ...       53.842 sec (  2.0% of sigma)
  Pair energies                        ...        0.045 sec (  0.0% of sigma)
Total Time for computing (T)           ...    26788.939 sec ( 69.6% of ALL)


Maximum memory used throughout the entire MDCI-calculation: 10144.0 MB

-------------------------   --------------------
FINAL SINGLE POINT ENERGY     -1159.660469458772
-------------------------   --------------------


                            ***************************************
                            *     ORCA property calculations      *
                            ***************************************


  WARNING: The energy has been calculated at the MDCI level but the densities
           used in the property calculations are still SCF densities
           MDCI response densities have not been calculated 
           use %mdci Density linearized end
           or  %mdci Density unrelaxed end
           or  %mdci Density orbopt end

                                    ---------------------
                                    Active property flags
                                    ---------------------
   (+) Dipole Moment


------------------------------------------------------------------------------
                       ORCA ELECTRIC PROPERTIES CALCULATION
------------------------------------------------------------------------------

Dipole Moment Calculation                       ... on
Quadrupole Moment Calculation                   ... off
Polarizability Calculation                      ... off
GBWName                                         ... input.gbw
Electron density                                ... input.scfp
The origin for moment calculation is the CENTER OF MASS  = (19.766951, 18.829321 18.557354)

-------------
DIPOLE MOMENT
-------------
                                X             Y             Z
Electronic contribution:     24.73695      -6.34259      -0.82944
Nuclear contribution   :    -35.11365      10.52753       5.76399
                        -----------------------------------------
Total Dipole Moment    :    -10.37670       4.18493       4.93455
                        -----------------------------------------
Magnitude (a.u.)       :     12.22863
Magnitude (Debye)      :     31.08270



--------------------
Rotational spectrum 
--------------------
 
Rotational constants in cm-1:     0.014629     0.004232     0.004186 
Rotational constants in MHz :   438.554641   126.878795   125.480004 

 Dipole components along the rotational axes: 
x,y,z [a.u.] :    11.610386     3.600851     1.331217 
x,y,z [Debye]:    29.511257     9.152637     3.383685 

 

Timings for individual modules:

Sum of individual times         ...    41121.158 sec (= 685.353 min)
GTO integral calculation        ...        6.358 sec (=   0.106 min)   0.0 %
SCF iterations                  ...     2626.908 sec (=  43.782 min)   6.4 %
MDCI module                     ...    38487.892 sec (= 641.465 min)  93.6 %
                             ****ORCA TERMINATED NORMALLY****
TOTAL RUN TIME: 0 days 11 hours 25 minutes 25 seconds 983 msec
