Loading orca/5.0.3
  Loading requirement: gcc-runtime/11.3.1-gcc-11.3.1-jw6fhud
    numactl/2.0.14-gcc-11.3.1-tqvsbcd openssh/8.7p1-gcc-11.3.1-ddo4kmk
    libiconv/1.17-gcc-11.3.1-h3jdn2x xz/5.4.1-gcc-11.3.1-y32p7p3
    zlib/1.2.13-gcc-11.3.1-dwcx77k libxml2/2.10.3-gcc-11.3.1-m4mk5ab
    cuda/11.8.0-gcc-11.3.1-i5witig libpciaccess/0.17-gcc-11.3.1-qksiqer
    ncurses/6.4-gcc-11.3.1-afnu276 hwloc/2.9.1-gcc-11.3.1-qedjm66
    openssl/3.1.2-gcc-11.3.1-mgoa6lt libevent/2.1.12-gcc-11.3.1-bpr3m74
    pmix/4.2.2-gcc-11.3.1-du4y5e7 slurm/22.05.6-gcc-11.3.1-atym2np
    libnl/3.3.0-gcc-11.3.1-gh3muw7 rdma-core/41.0-gcc-11.3.1-isp54jw
    ucx/1.14.1-gcc-11.3.1-o3wj4kz openmpi/4.1.2-gcc-11.3.1-fs7u3kb

                                 *****************
                                 * O   R   C   A *
                                 *****************

                                            #,                                       
                                            ###                                      
                                            ####                                     
                                            #####                                    
                                            ######                                   
                                           ########,                                 
                                     ,,################,,,,,                         
                               ,,#################################,,                 
                          ,,##########################################,,             
                       ,#########################################, ''#####,          
                    ,#############################################,,   '####,        
                  ,##################################################,,,,####,       
                ,###########''''           ''''###############################       
              ,#####''   ,,,,##########,,,,          '''####'''          '####       
            ,##' ,,,,###########################,,,                        '##       
           ' ,,###''''                  '''############,,,                           
         ,,##''                                '''############,,,,        ,,,,,,###''
      ,#''                                            '''#######################'''  
     '                                                          ''''####''''         
             ,#######,   #######,   ,#######,      ##                                
            ,#'     '#,  ##    ##  ,#'     '#,    #''#        ######   ,####,        
            ##       ##  ##   ,#'  ##            #'  '#       #        #'  '#        
            ##       ##  #######   ##           ,######,      #####,   #    #        
            '#,     ,#'  ##    ##  '#,     ,#' ,#      #,         ##   #,  ,#        
             '#######'   ##     ##  '#######'  #'      '#     #####' # '####'        



                  #######################################################
                  #                        -***-                        #
                  #          Department of theory and spectroscopy      #
                  #    Directorship and core code : Frank Neese         #
                  #        Max Planck Institute fuer Kohlenforschung    #
                  #                Kaiser Wilhelm Platz 1               #
                  #                 D-45470 Muelheim/Ruhr               #
                  #                      Germany                        #
                  #                                                     #
                  #                  All rights reserved                #
                  #                        -***-                        #
                  #######################################################


                         Program Version 5.0.3 -  RELEASE  -


 With contributions from (in alphabetic order):
   Daniel Aravena         : Magnetic Suceptibility
   Michael Atanasov       : Ab Initio Ligand Field Theory (pilot matlab implementation)
   Alexander A. Auer      : GIAO ZORA, VPT2 properties, NMR spectrum
   Ute Becker             : Parallelization
   Giovanni Bistoni       : ED, misc. LED, open-shell LED, HFLD
   Martin Brehm           : Molecular dynamics
   Dmytro Bykov           : SCF Hessian
   Vijay G. Chilkuri      : MRCI spin determinant printing, contributions to CSF-ICE
   Dipayan Datta          : RHF DLPNO-CCSD density
   Achintya Kumar Dutta   : EOM-CC, STEOM-CC
   Dmitry Ganyushin       : Spin-Orbit,Spin-Spin,Magnetic field MRCI
   Miquel Garcia          : C-PCM and meta-GGA Hessian, CC/C-PCM, Gaussian charge scheme
   Yang Guo               : DLPNO-NEVPT2, F12-NEVPT2, CIM, IAO-localization
   Andreas Hansen         : Spin unrestricted coupled pair/coupled cluster methods
   Benjamin Helmich-Paris : MC-RPA, TRAH-SCF, COSX integrals
   Lee Huntington         : MR-EOM, pCC
   Robert Izsak           : Overlap fitted RIJCOSX, COSX-SCS-MP3, EOM
   Marcus Kettner         : VPT2
   Christian Kollmar      : KDIIS, OOCD, Brueckner-CCSD(T), CCSD density, CASPT2, CASPT2-K
   Simone Kossmann        : Meta GGA functionals, TD-DFT gradient, OOMP2, MP2 Hessian
   Martin Krupicka        : Initial AUTO-CI
   Lucas Lang             : DCDCAS
   Marvin Lechner         : AUTO-CI (C++ implementation), FIC-MRCC
   Dagmar Lenk            : GEPOL surface, SMD
   Dimitrios Liakos       : Extrapolation schemes; Compound Job, initial MDCI parallelization
   Dimitrios Manganas     : Further ROCIS development; embedding schemes
   Dimitrios Pantazis     : SARC Basis sets
   Anastasios Papadopoulos: AUTO-CI, single reference methods and gradients
   Taras Petrenko         : DFT Hessian,TD-DFT gradient, ASA, ECA, R-Raman, ABS, FL, XAS/XES, NRVS
   Peter Pinski           : DLPNO-MP2, DLPNO-MP2 Gradient
   Christoph Reimann      : Effective Core Potentials
   Marius Retegan         : Local ZFS, SOC
   Christoph Riplinger    : Optimizer, TS searches, QM/MM, DLPNO-CCSD(T), (RO)-DLPNO pert. Triples
   Tobias Risthaus        : Range-separated hybrids, TD-DFT gradient, RPA, STAB
   Michael Roemelt        : Original ROCIS implementation
   Masaaki Saitow         : Open-shell DLPNO-CCSD energy and density
   Barbara Sandhoefer     : DKH picture change effects
   Avijit Sen             : IP-ROCIS
   Kantharuban Sivalingam : CASSCF convergence, NEVPT2, FIC-MRCI
   Bernardo de Souza      : ESD, SOC TD-DFT
   Georgi Stoychev        : AutoAux, RI-MP2 NMR, DLPNO-MP2 response
   Willem Van den Heuvel  : Paramagnetic NMR
   Boris Wezisla          : Elementary symmetry handling
   Frank Wennmohs         : Technical directorship


 We gratefully acknowledge several colleagues who have allowed us to
 interface, adapt or use parts of their codes:
   Stefan Grimme, W. Hujo, H. Kruse, P. Pracht,  : VdW corrections, initial TS optimization,
                  C. Bannwarth, S. Ehlert          DFT functionals, gCP, sTDA/sTD-DF
   Ed Valeev, F. Pavosevic, A. Kumar             : LibInt (2-el integral package), F12 methods
   Garnet Chan, S. Sharma, J. Yang, R. Olivares  : DMRG
   Ulf Ekstrom                                   : XCFun DFT Library
   Mihaly Kallay                                 : mrcc  (arbitrary order and MRCC methods)
   Jiri Pittner, Ondrej Demel                    : Mk-CCSD
   Frank Weinhold                                : gennbo (NPA and NBO analysis)
   Christopher J. Cramer and Donald G. Truhlar   : smd solvation model
   Lars Goerigk                                  : TD-DFT with DH, B97 family of functionals
   V. Asgeirsson, H. Jonsson                     : NEB implementation
   FAccTs GmbH                                   : IRC, NEB, NEB-TS, DLPNO-Multilevel, CI-OPT
                                                   MM, QMMM, 2- and 3-layer-ONIOM, Crystal-QMMM,
                                                   LR-CPCM, SF, NACMEs, symmetry and pop. for TD-DFT,
                                                   nearIR, NL-DFT gradient (VV10), updates on ESD,
                                                   ML-optimized integration grids
   S Lehtola, MJT Oliveira, MAL Marques          : LibXC Library
   Liviu Ungur et al                             : ANISO software


 Your calculation uses the libint2 library for the computation of 2-el integrals
 For citations please refer to: http://libint.valeyev.net

 Your ORCA version has been built with support for libXC version: 5.1.0
 For citations please refer to: https://tddft.org/programs/libxc/

 This ORCA versions uses:
   CBLAS   interface :  Fast vector & matrix operations
   LAPACKE interface :  Fast linear algebra routines
   SCALAPACK package :  Parallel linear algebra routines
   Shared memory     :  Shared parallel matrices
   BLAS/LAPACK       :  OpenBLAS 0.3.15  USE64BITINT DYNAMIC_ARCH NO_AFFINITY Prescott SINGLE_THREADED
        Core in use  :  Prescott
   Copyright (c) 2011-2014, The OpenBLAS Project


================================================================================

----- Orbital basis set information -----
Your calculation utilizes the basis: cc-pVQZ 
       H, B-Ne : Obtained from the ccRepo (grant-hill.group.shef.ac.uk/ccrepo) Feb. 2017
                 T. H. Dunning, Jr., J. Chem. Phys. 90, 1007 (1989)
            He : Obtained from the ccRepo (grant-hill.group.shef.ac.uk/ccrepo) Feb. 2017
                 D. E. Woon, T. H. Dunning, Jr., J. Chem. Phys. 100, 2975 (1994)
  Li-Be, Na-Mg : Obtained from the ccRepo (grant-hill.group.shef.ac.uk/ccrepo) Feb. 2017
                 B. P. Prascher, D. E. Woon, K. A. Peterson, T. H. Dunning, Jr., A. K. Wilson, Theor. Chem. Acc. 128, 69 (2011)
         Al-Ar : Obtained from the ccRepo (grant-hill.group.shef.ac.uk/ccrepo) Feb. 2017
                 D. E. Woon, T. H. Dunning, Jr., J. Chem. Phys. 98, 1358 (1993)
            Ca : Obtained from the Peterson Research Group Website (tyr0.chem.wsu.edu/~kipeters) Feb. 2017
                 J. Koput, K. A. Peterson, J. Phys. Chem. 106, 9595 (2002)
         Sc-Zn : Obtained from the ccRepo (grant-hill.group.shef.ac.uk/ccrepo) Feb. 2017
                 N. B. Balabanov, K. A. Peterson, J. Chem. Phys. 123, 064107 (2005)
                 N. B. Balabanov, K. A. Peterson, J. Chem. Phys. 125, 074110 (2006)
         Ga-Kr : Obtained from the ccRepo (grant-hill.group.shef.ac.uk/ccrepo) Feb. 2017
                 A. K. Wilson, D. E. Woon, K. A. Peterson, T. H. Dunning, Jr., J. Chem. Phys. 110, 7667 (1999)

----- AuxC basis set information -----
Your calculation utilizes the auxiliary basis: cc-pVQZ/C 
  Obtained from the EMSL Basis Set Exchange (bse.pnl.gov) Feb. 2017
  H-He, B-F, Al-Ar, Ga-Kr : F. Weigend, A. Kohn, C. Hattig, J. Chem. Phys. 116, 3175 (2002)
             Li-Be, Na-Mg : C. Haettig, Phys. Chem. Chem. Phys. 7, 59 (2005)
                       Ne : C. Haettig, Phys. Chem. Chem. Phys. 7, 59 (2005)
                            F. Weigend, A. Kohn, C. Hattig, J. Chem. Phys. 116, 3175 (2002)
                    Sc-Zn : D. H. Bross, J. G. Hill, H. J. Werner, K. A. Peterson, J. Chem. Phys. 139, 094302 (2013)

================================================================================
                                        WARNINGS
                       Please study these warnings very carefully!
================================================================================


WARNING: Post HF methods need fully converged wavefunctions
  ===> : Setting SCFConvForced true
         You can overwrite this default with %scf ConvForced false 


WARNING: MDCI localization with Augmented Hessian Foster-Boys
  ===> : Switching off randomization!

INFO   : the flag for use of the SHARK integral package has been found!

================================================================================
                                       INPUT FILE
================================================================================
NAME = input
|  1> ! DLPNO-CCSD(T) cc-pVQZ cc-pVQZ/C TIGHTPNO TIGHTSCF
|  2> %maxcore 10000
|  3> %pal
|  4> nprocs 16
|  5> end
|  6> *xyz -1 1
|  7> H 4.850781301215 12.934605292460 7.688224759549
|  8> C 5.350900000000 11.995300000000 7.872580000000
|  9> H 5.814320000000 11.687100000000 6.929940000000
| 10> H 4.616390000000 11.222300000000 8.114120000000
| 11> C 6.405250000000 11.957400000000 8.956310000000
| 12> H 5.933650000000 12.038600000000 9.938440000000
| 13> H 7.078470000000 12.808000000000 8.849450000000
| 14> C 7.178230000000 10.642400000000 8.877650000000
| 15> H 7.954460000000 10.700600000000 8.118730000000
| 16> H 6.505990000000 9.841780000000 8.576030000000
| 17> N 7.760130000000 10.197100000000 10.133200000000
| 18> H 7.540780000000 9.261380000000 10.474700000000
| 19> C 8.667680000000 10.843800000000 10.844500000000
| 20> N 9.155230000000 12.024000000000 10.424400000000
| 21> H 9.391740000000 12.000400000000 9.432430000000
| 22> H 9.968990000000 12.312300000000 10.944000000000
| 23> N 9.058580000000 10.320400000000 11.995300000000
| 24> H 9.699290000000 10.816500000000 12.602800000000
| 25> H 8.725680000000 9.394070000000 12.232700000000
| 26> C 13.434400000000 9.659130000000 8.968930000000
| 27> H 13.973900000000 9.823810000000 9.899320000000
| 28> H 14.080300000000 9.966040000000 8.158320000000
| 29> C 12.213200000000 10.517300000000 9.011080000000
| 30> C 11.477100000000 10.841200000000 7.684990000000
| 31> O 12.123900000000 10.746800000000 6.637850000000
| 32> O 10.267600000000 11.169400000000 7.812850000000
| 33> O 11.790500000000 10.937100000000 10.060200000000
| 34> C 11.115600000000 7.770220000000 10.397300000000
| 35> H 10.685400000000 7.687770000000 11.383200000000
| 36> C 12.419300000000 7.883220000000 10.233700000000
| 37> H 13.097400000000 7.939930000000 11.064300000000
| 38> C 13.071100000000 8.141650000000 8.920430000000
| 39> C 12.145900000000 7.755770000000 7.797810000000
| 40> H 12.590200000000 7.619840000000 6.822340000000
| 41> C 10.845100000000 7.556230000000 7.967210000000
| 42> H 10.225700000000 7.269060000000 7.124890000000
| 43> C 10.147900000000 7.808810000000 9.263810000000
| 44> H 9.727150000000 8.819730000000 9.203970000000
| 45> O 9.076930000000 6.898890000000 9.460740000000
| 46> H 8.594260000000 7.163270000000 10.286900000000
| 47> C 14.459700000000 7.449390000000 8.788380000000
| 48> O 15.081500000000 7.187770000000 9.836640000000
| 49> O 14.892700000000 7.304190000000 7.620260000000
| 50> *
| 51> 
| 52>                          ****END OF INPUT****
================================================================================

                       ****************************
                       * Single Point Calculation *
                       ****************************

---------------------------------
CARTESIAN COORDINATES (ANGSTROEM)
---------------------------------
  H      4.850781   12.934605    7.688225
  C      5.350900   11.995300    7.872580
  H      5.814320   11.687100    6.929940
  H      4.616390   11.222300    8.114120
  C      6.405250   11.957400    8.956310
  H      5.933650   12.038600    9.938440
  H      7.078470   12.808000    8.849450
  C      7.178230   10.642400    8.877650
  H      7.954460   10.700600    8.118730
  H      6.505990    9.841780    8.576030
  N      7.760130   10.197100   10.133200
  H      7.540780    9.261380   10.474700
  C      8.667680   10.843800   10.844500
  N      9.155230   12.024000   10.424400
  H      9.391740   12.000400    9.432430
  H      9.968990   12.312300   10.944000
  N      9.058580   10.320400   11.995300
  H      9.699290   10.816500   12.602800
  H      8.725680    9.394070   12.232700
  C     13.434400    9.659130    8.968930
  H     13.973900    9.823810    9.899320
  H     14.080300    9.966040    8.158320
  C     12.213200   10.517300    9.011080
  C     11.477100   10.841200    7.684990
  O     12.123900   10.746800    6.637850
  O     10.267600   11.169400    7.812850
  O     11.790500   10.937100   10.060200
  C     11.115600    7.770220   10.397300
  H     10.685400    7.687770   11.383200
  C     12.419300    7.883220   10.233700
  H     13.097400    7.939930   11.064300
  C     13.071100    8.141650    8.920430
  C     12.145900    7.755770    7.797810
  H     12.590200    7.619840    6.822340
  C     10.845100    7.556230    7.967210
  H     10.225700    7.269060    7.124890
  C     10.147900    7.808810    9.263810
  H      9.727150    8.819730    9.203970
  O      9.076930    6.898890    9.460740
  H      8.594260    7.163270   10.286900
  C     14.459700    7.449390    8.788380
  O     15.081500    7.187770    9.836640
  O     14.892700    7.304190    7.620260

----------------------------
CARTESIAN COORDINATES (A.U.)
----------------------------
  NO LB      ZA    FRAG     MASS         X           Y           Z
   0 H     1.0000    0     1.008    9.166648   24.442862   14.528639
   1 C     6.0000    0    12.011   10.111736   22.667832   14.877020
   2 H     1.0000    0     1.008   10.987472   22.085418   13.095689
   3 H     1.0000    0     1.008    8.723713   21.207074   15.333465
   4 C     6.0000    0    12.011   12.104168   22.596211   16.924973
   5 H     1.0000    0     1.008   11.212973   22.749657   18.780930
   6 H     1.0000    0     1.008   13.376370   24.203612   16.723037
   7 C     6.0000    0    12.011   13.564889   20.111221   16.776327
   8 H     1.0000    0     1.008   15.031751   20.221203   15.342176
   9 H     1.0000    0     1.008   12.294539   18.598269   16.206348
  10 N     7.0000    0    14.007   14.664520   19.269726   19.148973
  11 H     1.0000    0     1.008   14.250009   17.501472   19.794314
  12 C     6.0000    0    12.011   16.379541   20.491812   20.493135
  13 N     7.0000    0    14.007   17.300877   22.722067   19.699261
  14 H     1.0000    0     1.008   17.747817   22.677469   17.824709
  15 H     1.0000    0     1.008   18.838661   23.266875   20.681163
  16 N     7.0000    0    14.007   17.118235   19.502730   22.667832
  17 H     1.0000    0     1.008   18.329002   20.440223   23.815841
  18 H     1.0000    0     1.008   16.489146   17.752220   23.116453
  19 C     6.0000    0    12.011   25.387337   18.253110   16.948821
  20 H     1.0000    0     1.008   26.406844   18.564310   18.707004
  21 H     1.0000    0     1.008   26.607911   18.833086   15.416991
  22 C     6.0000    0    12.011   23.079603   19.874817   17.028473
  23 C     6.0000    0    12.011   21.688576   20.486899   14.522526
  24 O     8.0000    0    15.999   22.910851   20.308509   12.543719
  25 O     8.0000    0    15.999   19.402952   21.107107   14.764147
  26 O     8.0000    0    15.999   22.280816   20.668124   19.011023
  27 C     6.0000    0    12.011   21.005440   14.683588   19.648050
  28 H     1.0000    0     1.008   20.192480   14.527780   21.511131
  29 C     6.0000    0    12.011   23.469076   14.897127   19.338890
  30 H     1.0000    0     1.008   24.750499   15.004293   20.908497
  31 C     6.0000    0    12.011   24.700799   15.385489   16.857170
  32 C     6.0000    0    12.011   22.952425   14.656281   14.735725
  33 H     1.0000    0     1.008   23.792030   14.399411   12.892354
  34 C     6.0000    0    12.011   20.494269   14.279205   15.055845
  35 H     1.0000    0     1.008   19.323773   13.736533   13.464091
  36 C     6.0000    0    12.011   19.176752   14.756512   17.506064
  37 H     1.0000    0     1.008   18.381650   16.666874   17.392983
  38 O     8.0000    0    15.999   17.152912   13.037013   17.878208
  39 H     1.0000    0     1.008   16.240798   13.536619   19.439424
  40 C     6.0000    0    12.011   27.324873   14.077307   16.607631
  41 O     8.0000    0    15.999   28.499905   13.582917   18.588556
  42 O     8.0000    0    15.999   28.143124   13.802919   14.400204

--------------------------------
INTERNAL COORDINATES (ANGSTROEM)
--------------------------------
 H      0   0   0     0.000000000000     0.00000000     0.00000000
 C      1   0   0     1.080000000000     0.00000000     0.00000000
 H      2   1   0     1.094675982197   107.09234790     0.00000000
 H      2   1   3     1.093332297017   109.96969035   245.26011713
 C      2   1   3     1.512468527078   117.83428142   122.33374507
 H      5   2   1     1.092510566036   109.95959528    71.01022916
 H      5   2   1     1.090029627120   109.92227273   313.14334272
 C      5   2   1     1.527386812828   109.72244006   191.12555897
 H      8   5   2     1.087142961758   110.56112028    82.02242695
 H      8   5   2     1.088059569325   109.57913274   324.71477230
 N      8   5   2     1.453721260249   114.94949145   206.59016792
 H     11   8   5     1.019955190633   118.95426644   125.39857380
 C     11   8   5     1.322049765516   126.13058861   298.56547040
 N     13  11   8     1.344269709731   120.68356773   359.30235845
 H     14  13  11     1.020048244447   111.57324469   314.74610085
 H     14  13  11     1.007624130120   112.51669245   192.23986272
 N     13  11   8     1.323287954302   118.50283063   177.55001436
 H     17  13  11     1.012758986186   120.98335824   184.59640243
 H     17  13  11     1.012555400410   117.94501569     6.90932856
 C     15  14  13     4.694622172071   107.89132858   283.56899496
 H     20  15  14     1.088028172659   105.49065393   331.00931038
 H     20  15  14     1.080957506195   116.55045468   211.74703348
 C     20  15  14     1.493171728704     6.44023205   225.44039461
 C     23  20  22     1.550893003434   118.95175685    44.56926168
 O     24  23  20     1.234408271035   117.43012734   337.86894048
 O     24  23  20     1.259743493573   115.04473343   157.59556680
 O     23  20  22     1.206465956586   120.73545433   223.43211587
 C     27  23  20     3.255496176376    79.87422635   290.53126196
 H     28  27  23     1.078827536032   104.57472382   177.79205583
 C     28  27  23     1.318775056634    72.47391774    59.43475224
 H     30  28  27     1.073746708540   122.19961968    94.14101633
 C     30  28  27     1.488726770700   123.85734824   283.37667444
 C     32  30  28     1.505049527026   110.14162230   339.23164244
 H     33  32  30     1.080472663143   116.92904293   197.41736963
 C     33  32  30     1.326873472340   123.09162969    16.03724014
 H     35  33  32     1.084262860795   120.04547243   180.65034437
 C     28  27  23     1.490882979378    91.75674054   295.22361102
 H     37  28  27     1.096617816060   108.32376896   331.32860099
 O     37  28  27     1.419053407099   111.57744827   212.56901317
 H     39  37  28     0.992676915668   108.16069668    61.25923283
 C     32  30  28     1.557199752793   112.83351600   213.56079849
 O     41  32  30     1.246567002612   117.82635012   335.38418705
 O     41  32  30     1.254223414867   115.99536073   160.85028979

---------------------------
INTERNAL COORDINATES (A.U.)
---------------------------
 H      0   0   0     0.000000000000     0.00000000     0.00000000
 C      1   0   0     2.040904224635     0.00000000     0.00000000
 H      2   1   0     2.068637811734   107.09234790     0.00000000
 H      2   1   3     2.066098614733   109.96969035   245.26011713
 C      2   1   3     2.858151302352   117.83428142   122.33374507
 H      5   2   1     2.064545768223   109.95959528    71.01022916
 H      5   2   1     2.059857473118   109.92227273   313.14334272
 C      5   2   1     2.886342776807   109.72244006   191.12555897
 H      8   5   2     2.054402466143   110.56112028    82.02242695
 H      8   5   2     2.056134603417   109.57913274   324.71477230
 N      8   5   2     2.747135056930   114.94949145   206.59016792
 H     11   8   5     1.927435979169   118.95426644   125.39857380
 C     11   8   5     2.498311992239   126.13058861   298.56547040
 N     13  11   8     2.540301601517   120.68356773   359.30235845
 H     14  13  11     1.927611825393   111.57324469   314.74610085
 H     14  13  11     1.904133651857   112.51669245   192.23986272
 N     13  11   8     2.500651829947   118.50283063   177.55001436
 H     17  13  11     1.913837123559   120.98335824   184.59640243
 H     17  13  11     1.913452402198   117.94501569     6.90932856
 C     15  14  13     8.871550207449   107.89132858   283.56899496
 H     20  15  14     2.056075272317   105.49065393   331.00931038
 H     20  15  14     2.042713649116   116.55045468   211.74703348
 C     20  15  14     2.821685638164     6.44023205   225.44039461
 C     23  20  22     2.930763039505   118.95175685    44.56926168
 O     24  23  20     2.332693569704   117.43012734   337.86894048
 O     24  23  20     2.380570201843   115.04473343   157.59556680
 O     23  20  22     2.279890247846   120.73545433   223.43211587
 C     27  23  20     6.151996203379    79.87422635   290.53126196
 H     28  27  23     2.038688588833   104.57472382   177.79205583
 C     28  27  23     2.492123689285    72.47391774    59.43475224
 H     30  28  27     2.029087216340   122.19961968    94.14101633
 C     30  28  27     2.813285884861   123.85734824   283.37667444
 C     32  30  28     2.844131424066   110.14162230   339.23164244
 H     33  32  30     2.041797428529   116.92904293   197.41736963
 C     33  32  30     2.507427477088   123.09162969    16.03724014
 H     35  33  32     2.048959864085   120.04547243   180.65034437
 C     28  27  23     2.817360528750    91.75674054   295.22361102
 H     37  28  27     2.072307345932   108.32376896   331.32860099
 O     37  28  27     2.681622308825   111.57744827   212.56901317
 H     39  37  28     1.875887510078   108.16069668    61.25923283
 C     32  30  28     2.942681068590   112.83351600   213.56079849
 O     41  32  30     2.355670242519   117.82635012   335.38418705
 O     41  32  30     2.370138764850   115.99536073   160.85028979

---------------------
BASIS SET INFORMATION
---------------------
There are 4 groups of distinct atoms

 Group   1 Type H   : 6s3p2d1f contracted to 4s3p2d1f pattern {3111/111/11/1}
 Group   2 Type C   : 21s6p3d2f1g contracted to 5s4p3d2f1g pattern {99111/3111/111/11/1}
 Group   3 Type N   : 21s6p3d2f1g contracted to 5s4p3d2f1g pattern {99111/3111/111/11/1}
 Group   4 Type O   : 21s6p3d2f1g contracted to 5s4p3d2f1g pattern {99111/3111/111/11/1}

Atom   0H    basis set group =>   1
Atom   1C    basis set group =>   2
Atom   2H    basis set group =>   1
Atom   3H    basis set group =>   1
Atom   4C    basis set group =>   2
Atom   5H    basis set group =>   1
Atom   6H    basis set group =>   1
Atom   7C    basis set group =>   2
Atom   8H    basis set group =>   1
Atom   9H    basis set group =>   1
Atom  10N    basis set group =>   3
Atom  11H    basis set group =>   1
Atom  12C    basis set group =>   2
Atom  13N    basis set group =>   3
Atom  14H    basis set group =>   1
Atom  15H    basis set group =>   1
Atom  16N    basis set group =>   3
Atom  17H    basis set group =>   1
Atom  18H    basis set group =>   1
Atom  19C    basis set group =>   2
Atom  20H    basis set group =>   1
Atom  21H    basis set group =>   1
Atom  22C    basis set group =>   2
Atom  23C    basis set group =>   2
Atom  24O    basis set group =>   4
Atom  25O    basis set group =>   4
Atom  26O    basis set group =>   4
Atom  27C    basis set group =>   2
Atom  28H    basis set group =>   1
Atom  29C    basis set group =>   2
Atom  30H    basis set group =>   1
Atom  31C    basis set group =>   2
Atom  32C    basis set group =>   2
Atom  33H    basis set group =>   1
Atom  34C    basis set group =>   2
Atom  35H    basis set group =>   1
Atom  36C    basis set group =>   2
Atom  37H    basis set group =>   1
Atom  38O    basis set group =>   4
Atom  39H    basis set group =>   1
Atom  40C    basis set group =>   2
Atom  41O    basis set group =>   4
Atom  42O    basis set group =>   4
---------------------------------
AUXILIARY/C BASIS SET INFORMATION
---------------------------------
There are 4 groups of distinct atoms

 Group   1 Type H   : 5s4p3d2f1g contracted to 5s4p3d2f1g pattern {11111/1111/111/11/1}
 Group   2 Type C   : 8s7p6d5f3g1h contracted to 8s7p6d5f3g1h pattern {11111111/1111111/111111/11111/111/1}
 Group   3 Type N   : 8s7p6d5f3g1h contracted to 8s7p6d5f3g1h pattern {11111111/1111111/111111/11111/111/1}
 Group   4 Type O   : 8s7p6d5f3g1h contracted to 8s7p6d5f3g1h pattern {11111111/1111111/111111/11111/111/1}

Atom   0H    basis set group =>   1
Atom   1C    basis set group =>   2
Atom   2H    basis set group =>   1
Atom   3H    basis set group =>   1
Atom   4C    basis set group =>   2
Atom   5H    basis set group =>   1
Atom   6H    basis set group =>   1
Atom   7C    basis set group =>   2
Atom   8H    basis set group =>   1
Atom   9H    basis set group =>   1
Atom  10N    basis set group =>   3
Atom  11H    basis set group =>   1
Atom  12C    basis set group =>   2
Atom  13N    basis set group =>   3
Atom  14H    basis set group =>   1
Atom  15H    basis set group =>   1
Atom  16N    basis set group =>   3
Atom  17H    basis set group =>   1
Atom  18H    basis set group =>   1
Atom  19C    basis set group =>   2
Atom  20H    basis set group =>   1
Atom  21H    basis set group =>   1
Atom  22C    basis set group =>   2
Atom  23C    basis set group =>   2
Atom  24O    basis set group =>   4
Atom  25O    basis set group =>   4
Atom  26O    basis set group =>   4
Atom  27C    basis set group =>   2
Atom  28H    basis set group =>   1
Atom  29C    basis set group =>   2
Atom  30H    basis set group =>   1
Atom  31C    basis set group =>   2
Atom  32C    basis set group =>   2
Atom  33H    basis set group =>   1
Atom  34C    basis set group =>   2
Atom  35H    basis set group =>   1
Atom  36C    basis set group =>   2
Atom  37H    basis set group =>   1
Atom  38O    basis set group =>   4
Atom  39H    basis set group =>   1
Atom  40C    basis set group =>   2
Atom  41O    basis set group =>   4
Atom  42O    basis set group =>   4


           ************************************************************
           *        Program running with 16 parallel MPI-processes    *
           *              working on a common directory               *
           ************************************************************
------------------------------------------------------------------------------
                           ORCA GTO INTEGRAL CALCULATION
------------------------------------------------------------------------------
------------------------------------------------------------------------------
                   ___                                                        
                  /   \      - P O W E R E D   B Y -                         
                 /     \                                                     
                 |  |  |   _    _      __       _____    __    __             
                 |  |  |  | |  | |    /  \     |  _  \  |  |  /  |          
                  \  \/   | |  | |   /    \    | | | |  |  | /  /          
                 / \  \   | |__| |  /  /\  \   | |_| |  |  |/  /          
                |  |  |   |  __  | /  /__\  \  |    /   |      \           
                |  |  |   | |  | | |   __   |  |    \   |  |\   \          
                \     /   | |  | | |  |  |  |  | |\  \  |  | \   \       
                 \___/    |_|  |_| |__|  |__|  |_| \__\ |__|  \__/        
                                                                              
                      - O R C A' S   B I G   F R I E N D -                    
                                      &                                       
                       - I N T E G R A L  F E E D E R -                       
                                                                              
 v1 FN, 2020, v2 2021                                                         
------------------------------------------------------------------------------


Reading SHARK input file input.SHARKINP.tmp ... ok
----------------------
SHARK INTEGRAL PACKAGE
----------------------

Number of atoms                             ...     43
Number of basis functions                   ...   2026
Number of shells                            ...    706
Maximum angular momentum                    ...      4
Integral batch strategy                     ... SHARK/LIBINT Hybrid
RI-J (if used) integral strategy            ... SPLIT-RIJ (Revised 2003 algorithm where possible)
Printlevel                                  ...      1
Contraction scheme used                     ... PARTIAL GENERAL contraction
Coulomb Range Separation                    ... NOT USED
Exchange Range Separation                   ... NOT USED
Finite Nucleus Model                        ... NOT USED
Auxiliary Coulomb fitting basis             ... NOT available
Auxiliary J/K fitting basis                 ... NOT available
Auxiliary Correlation fitting basis         ... AVAILABLE
   # of basis functions in Aux-C            ...   4136
   # of shells in Aux-C                     ...    990
   Maximum angular momentum in Aux-C        ...      5
Auxiliary 'external' fitting basis          ... NOT available
Integral threshold                          ...     2.500000e-11
Primitive cut-off                           ...     2.500000e-12
Primitive pair pre-selection threshold      ...     2.500000e-12

Calculating pre-screening integrals         ... done (  0.4 sec) Dimension = 706
Calculating pre-screening integrals (ORCA)  ... done (  0.9 sec) Dimension = 545
Organizing shell pair data                  ... done ( 39.1 sec)
Shell pair information
Total number of shell pairs                 ...    249571
Shell pairs after pre-screening             ...    122088
Total number of primitive shell pairs       ...    314157
Primitive shell pairs kept                  ...    138331
          la=0 lb=0:  25346 shell pairs
          la=1 lb=0:  28766 shell pairs
          la=1 lb=1:   7666 shell pairs
          la=2 lb=0:  18167 shell pairs
          la=2 lb=1:  10181 shell pairs
          la=2 lb=2:   3389 shell pairs
          la=3 lb=0:  10040 shell pairs
          la=3 lb=1:   5853 shell pairs
          la=3 lb=2:   3818 shell pairs
          la=3 lb=3:   1123 shell pairs
          la=4 lb=0:   3457 shell pairs
          la=4 lb=1:   2041 shell pairs
          la=4 lb=2:   1337 shell pairs
          la=4 lb=3:    761 shell pairs
          la=4 lb=4:    143 shell pairs

Calculating one electron integrals          ... done (  0.3 sec)
Calculating RI/C V-Matrix + Cholesky decomp.... done (  8.0 sec)
Calculating Nuclear repulsion               ... done (  0.0 sec) ENN=   2103.720329397398 Eh

SHARK setup successfully completed in  52.7 seconds

Maximum memory used throughout the entire GTOINT-calculation: 181.0 MB


           ************************************************************
           *        Program running with 16 parallel MPI-processes    *
           *              working on a common directory               *
           ************************************************************
-------------------------------------------------------------------------------
                                 ORCA SCF
-------------------------------------------------------------------------------

------------
SCF SETTINGS
------------
Hamiltonian:
 Ab initio Hamiltonian  Method          .... Hartree-Fock(GTOs)


General Settings:
 Integral files         IntName         .... input
 Hartree-Fock type      HFTyp           .... RHF
 Total Charge           Charge          ....   -1
 Multiplicity           Mult            ....    1
 Number of Electrons    NEL             ....  174
 Basis Dimension        Dim             .... 1865
 Nuclear Repulsion      ENuc            ....   2103.7203293974 Eh

Convergence Acceleration:
 DIIS                   CNVDIIS         .... on
   Start iteration      DIISMaxIt       ....    12
   Startup error        DIISStart       ....  0.200000
   # of expansion vecs  DIISMaxEq       ....     5
   Bias factor          DIISBfac        ....   1.050
   Max. coefficient     DIISMaxC        ....  10.000
 Trust-Rad. Augm. Hess. CNVTRAH         .... auto
   Auto Start mean grad. ratio tolernc. ....  1.125000
   Auto Start start iteration           ....    20
   Auto Start num. interpolation iter.  ....    10
   Max. Number of Micro iterations      ....    16
   Max. Number of Macro iterations      .... Maxiter - #DIIS iter
   Number of Davidson start vectors     ....     2
   Converg. threshold I  (grad. norm)   ....   1.000e-05
   Converg. threshold II (energy diff.) ....   1.000e-08
   Grad. Scal. Fac. for Micro threshold ....   0.100
   Minimum threshold for Micro iter.    ....   0.010
   NR start threshold (gradient norm)   ....   0.001
   Initial trust radius                 ....   0.400
   Minimum AH scaling param. (alpha)    ....   1.000
   Maximum AH scaling param. (alpha)    .... 1000.000
   Orbital update algorithm             .... Taylor
   White noise on init. David. guess    .... on
   Maximum white noise                  ....   0.010
   Quad. conv. algorithm                .... NR
 SOSCF                  CNVSOSCF        .... on
   Start iteration      SOSCFMaxIt      ....   150
   Startup grad/error   SOSCFStart      ....  0.003300
 Level Shifting         CNVShift        .... on
   Level shift para.    LevelShift      ....    0.2500
   Turn off err/grad.   ShiftErr        ....    0.0010
 Zerner damping         CNVZerner       .... off
 Static damping         CNVDamp         .... on
   Fraction old density DampFac         ....    0.7000
   Max. Damping (<1)    DampMax         ....    0.9800
   Min. Damping (>=0)   DampMin         ....    0.0000
   Turn off err/grad.   DampErr         ....    0.1000
 Fernandez-Rico         CNVRico         .... off

SCF Procedure:
 Maximum # iterations   MaxIter         ....   125
 SCF integral mode      SCFMode         .... Direct
   Integral package                     .... SHARK and LIBINT hybrid scheme
 Reset frequency        DirectResetFreq ....    20
 Integral Threshold     Thresh          ....  2.500e-11 Eh
 Primitive CutOff       TCut            ....  2.500e-12 Eh

Convergence Tolerance:
 Convergence Check Mode ConvCheckMode   .... Total+1el-Energy
 Convergence forced     ConvForced      .... 1
 Energy Change          TolE            ....  1.000e-08 Eh
 1-El. energy change                    ....  1.000e-05 Eh
 Orbital Gradient       TolG            ....  1.000e-05
 Orbital Rotation angle TolX            ....  1.000e-05
 DIIS Error             TolErr          ....  5.000e-07


Diagonalization of the overlap matrix:
Smallest eigenvalue                        ... 5.381e-06
Time for diagonalization                   ...    0.459 sec
Threshold for overlap eigenvalues          ... 1.000e-08
Number of eigenvalues below threshold      ... 0
Time for construction of square roots      ...    1.042 sec
Total time needed                          ...    1.520 sec

Time for model grid setup =   11.370 sec

------------------------------
INITIAL GUESS: MODEL POTENTIAL
------------------------------
Loading Hartree-Fock densities                     ... done
Calculating cut-offs                               ... done
Initializing the effective Hamiltonian             ... done
Setting up the integral package (SHARK)            ... done
Starting the Coulomb interaction                   ... done (   1.4 sec)
Reading the grid                                   ... done
Mapping shells                                     ... done
Starting the XC term evaluation                    ... done (   0.4 sec)
Transforming the Hamiltonian                       ... done (   0.3 sec)
Diagonalizing the Hamiltonian                      ... done (   0.5 sec)
Back transforming the eigenvectors                 ... done (   0.2 sec)
Now organizing SCF variables                       ... done
                      ------------------
                      INITIAL GUESS DONE (  14.5 sec)
                      ------------------
--------------
SCF ITERATIONS
--------------
ITER       Energy         Delta-E        Max-DP      RMS-DP      [F,P]     Damp
               ***  Starting incremental Fock matrix formation  ***
  0  -1153.5846628342   0.000000000000 0.19993664  0.00040780  0.3818171 0.7000
  1  -1154.0118208163  -0.427157982101 0.22496238  0.00039876  0.2302836 0.7000
                               ***Turning on DIIS***
  2  -1154.2647002810  -0.252879464723 0.13929075  0.00026203  0.1325142 0.7000
  3  -1157.0434638019  -2.778763520905 0.14235430  0.00043738  0.0778912 0.0000
  4  -1154.6920359140   2.351427887974 0.08695596  0.00012677  0.0086143 0.0000
  5  -1154.8085788909  -0.116542976979 0.02682061  0.00005164  0.0039434 0.0000
                      *** Initiating the SOSCF procedure ***
                           *** Shutting down DIIS ***
                      *** Re-Reading the Fockian *** 
                      *** Removing any level shift *** 
ITER      Energy       Delta-E        Grad      Rot      Max-DP    RMS-DP
  6  -1154.77298865   0.0355902415  0.000938  0.000938  0.016034  0.000028
               *** Restarting incremental Fock matrix formation ***
  7  -1154.79282734  -0.0198386879  0.000376  0.000757  0.006427  0.000016
  8  -1154.79285603  -0.0000286941  0.000173  0.000652  0.005440  0.000012
  9  -1154.79286544  -0.0000094105  0.000044  0.000118  0.001613  0.000004
 10  -1154.79286612  -0.0000006823  0.000016  0.000047  0.000445  0.000001
 11  -1154.79286621  -0.0000000824  0.000010  0.000031  0.000053  0.000000
 12  -1154.79286623  -0.0000000249  0.000003  0.000006  0.000067  0.000000
                  ***Gradient check signals convergence***
              ***Rediagonalizing the Fockian in SOSCF/NRSCF***

               *****************************************************
               *                     SUCCESS                       *
               *           SCF CONVERGED AFTER  13 CYCLES          *
               *****************************************************


----------------
TOTAL SCF ENERGY
----------------

Total Energy       :        -1154.79286626 Eh          -31423.51143 eV

Components:
Nuclear Repulsion  :         2103.72032940 Eh           57245.14045 eV
Electronic Energy  :        -3258.51319565 Eh          -88668.65188 eV
One Electron Energy:        -5787.39117610 Eh         -157482.92018 eV
Two Electron Energy:         2528.87798044 Eh           68814.26830 eV

Virial components:
Potential Energy   :        -2308.88723540 Eh          -62828.01579 eV
Kinetic Energy     :         1154.09436914 Eh           31404.50436 eV
Virial Ratio       :            2.00060523


---------------
SCF CONVERGENCE
---------------

  Last Energy change         ...   -2.4406e-08  Tolerance :   1.0000e-08
  Last MAX-Density change    ...    2.4770e-05  Tolerance :   1.0000e-07
  Last RMS-Density change    ...    7.0450e-08  Tolerance :   5.0000e-09
  Last Orbital Gradient      ...    1.1225e-06  Tolerance :   1.0000e-05
  Last Orbital Rotation      ...    2.9629e-06  Tolerance :   1.0000e-05

             **** THE GBW FILE WAS UPDATED (input.gbw) ****
             **** DENSITY input.scfp WAS UPDATED ****
             **** ENERGY FILE WAS UPDATED (input.en.tmp) ****
             **** THE GBW FILE WAS UPDATED (input.gbw) ****
             **** DENSITY input.scfp WAS UPDATED ****
----------------
ORBITAL ENERGIES
----------------

  NO   OCC          E(Eh)            E(eV) 
   0   2.0000     -20.472136      -557.0751 
   1   2.0000     -20.426538      -555.8344 
   2   2.0000     -20.355061      -553.8894 
   3   2.0000     -20.348686      -553.7159 
   4   2.0000     -20.299313      -552.3724 
   5   2.0000     -20.293114      -552.2037 
   6   2.0000     -15.580359      -423.9631 
   7   2.0000     -15.572900      -423.7602 
   8   2.0000     -15.533381      -422.6848 
   9   2.0000     -11.365586      -309.2733 
  10   2.0000     -11.218840      -305.2802 
  11   2.0000     -11.194468      -304.6170 
  12   2.0000     -11.191523      -304.5368 
  13   2.0000     -11.177882      -304.1656 
  14   2.0000     -11.170968      -303.9775 
  15   2.0000     -11.169223      -303.9300 
  16   2.0000     -11.145528      -303.2852 
  17   2.0000     -11.100507      -302.0602 
  18   2.0000     -11.098696      -302.0109 
  19   2.0000     -11.096424      -301.9491 
  20   2.0000     -11.089734      -301.7670 
  21   2.0000     -11.089611      -301.7636 
  22   2.0000     -11.086629      -301.6825 
  23   2.0000      -1.327721       -36.1291 
  24   2.0000      -1.280830       -34.8531 
  25   2.0000      -1.269905       -34.5559 
  26   2.0000      -1.231059       -33.4988 
  27   2.0000      -1.194786       -32.5118 
  28   2.0000      -1.185042       -32.2466 
  29   2.0000      -1.164800       -31.6958 
  30   2.0000      -1.133654       -30.8483 
  31   2.0000      -1.076705       -29.2986 
  32   2.0000      -1.021791       -27.8043 
  33   2.0000      -1.013241       -27.5717 
  34   2.0000      -0.918895       -25.0044 
  35   2.0000      -0.909250       -24.7420 
  36   2.0000      -0.891865       -24.2689 
  37   2.0000      -0.828751       -22.5515 
  38   2.0000      -0.822697       -22.3867 
  39   2.0000      -0.776485       -21.1292 
  40   2.0000      -0.750611       -20.4252 
  41   2.0000      -0.744501       -20.2589 
  42   2.0000      -0.724487       -19.7143 
  43   2.0000      -0.698146       -18.9975 
  44   2.0000      -0.681858       -18.5543 
  45   2.0000      -0.642061       -17.4714 
  46   2.0000      -0.625372       -17.0172 
  47   2.0000      -0.606095       -16.4927 
  48   2.0000      -0.599556       -16.3147 
  49   2.0000      -0.596830       -16.2406 
  50   2.0000      -0.589932       -16.0529 
  51   2.0000      -0.578494       -15.7416 
  52   2.0000      -0.566452       -15.4139 
  53   2.0000      -0.558945       -15.2097 
  54   2.0000      -0.531312       -14.4577 
  55   2.0000      -0.526012       -14.3135 
  56   2.0000      -0.515912       -14.0387 
  57   2.0000      -0.503903       -13.7119 
  58   2.0000      -0.502227       -13.6663 
  59   2.0000      -0.497963       -13.5503 
  60   2.0000      -0.480748       -13.0818 
  61   2.0000      -0.469905       -12.7868 
  62   2.0000      -0.460000       -12.5172 
  63   2.0000      -0.455740       -12.4013 
  64   2.0000      -0.450466       -12.2578 
  65   2.0000      -0.448708       -12.2100 
  66   2.0000      -0.439477       -11.9588 
  67   2.0000      -0.433051       -11.7839 
  68   2.0000      -0.419504       -11.4153 
  69   2.0000      -0.408440       -11.1142 
  70   2.0000      -0.404499       -11.0070 
  71   2.0000      -0.399939       -10.8829 
  72   2.0000      -0.394389       -10.7319 
  73   2.0000      -0.381769       -10.3885 
  74   2.0000      -0.373648       -10.1675 
  75   2.0000      -0.358887        -9.7658 
  76   2.0000      -0.353670        -9.6238 
  77   2.0000      -0.332774        -9.0552 
  78   2.0000      -0.312870        -8.5136 
  79   2.0000      -0.277567        -7.5530 
  80   2.0000      -0.259572        -7.0633 
  81   2.0000      -0.247943        -6.7469 
  82   2.0000      -0.246125        -6.6974 
  83   2.0000      -0.233612        -6.3569 
  84   2.0000      -0.214427        -5.8349 
  85   2.0000      -0.201387        -5.4800 
  86   2.0000      -0.193393        -5.2625 
  87   0.0000       0.122647         3.3374 
  88   0.0000       0.158051         4.3008 
  89   0.0000       0.163378         4.4457 
  90   0.0000       0.187103         5.0913 
  91   0.0000       0.190646         5.1877 
  92   0.0000       0.205338         5.5875 
  93   0.0000       0.209676         5.7056 
  94   0.0000       0.229260         6.2385 
  95   0.0000       0.233993         6.3673 
  96   0.0000       0.245208         6.6725 
  97   0.0000       0.245619         6.6836 
  98   0.0000       0.249754         6.7961 
  99   0.0000       0.254648         6.9293 
 100   0.0000       0.264050         7.1852 
 101   0.0000       0.268332         7.3017 
 102   0.0000       0.279734         7.6120 
 103   0.0000       0.285972         7.7817 
 104   0.0000       0.290024         7.8919 
 105   0.0000       0.306471         8.3395 
 106   0.0000       0.308998         8.4083 
 107   0.0000       0.314589         8.5604 
 108   0.0000       0.320035         8.7086 
 109   0.0000       0.326287         8.8787 
 110   0.0000       0.329862         8.9760 
 111   0.0000       0.344388         9.3713 
 112   0.0000       0.345507         9.4017 
 113   0.0000       0.348697         9.4885 
 114   0.0000       0.359871         9.7926 
 115   0.0000       0.363103         9.8805 
 116   0.0000       0.371837        10.1182 
 117   0.0000       0.382006        10.3949 
 118   0.0000       0.385308        10.4848 
 119   0.0000       0.394069        10.7232 
 120   0.0000       0.396297        10.7838 
 121   0.0000       0.399758        10.8780 
 122   0.0000       0.405300        11.0288 
 123   0.0000       0.413752        11.2588 
 124   0.0000       0.418064        11.3761 
 125   0.0000       0.421192        11.4612 
 126   0.0000       0.429381        11.6841 
 127   0.0000       0.430972        11.7273 
 128   0.0000       0.441426        12.0118 
 129   0.0000       0.448292        12.1986 
 130   0.0000       0.453511        12.3407 
 131   0.0000       0.464793        12.6477 
 132   0.0000       0.466292        12.6885 
 133   0.0000       0.473556        12.8861 
 134   0.0000       0.481288        13.0965 
 135   0.0000       0.486333        13.2338 
 136   0.0000       0.493059        13.4168 
 137   0.0000       0.493751        13.4356 
 138   0.0000       0.496514        13.5108 
 139   0.0000       0.502114        13.6632 
 140   0.0000       0.505380        13.7521 
 141   0.0000       0.513601        13.9758 
 142   0.0000       0.519308        14.1311 
 143   0.0000       0.520874        14.1737 
 144   0.0000       0.522142        14.2082 
 145   0.0000       0.530508        14.4359 
 146   0.0000       0.533244        14.5103 
 147   0.0000       0.534737        14.5509 
 148   0.0000       0.539638        14.6843 
 149   0.0000       0.542343        14.7579 
 150   0.0000       0.545867        14.8538 
 151   0.0000       0.553196        15.0532 
 152   0.0000       0.556996        15.1566 
 153   0.0000       0.558442        15.1960 
 154   0.0000       0.561627        15.2826 
 155   0.0000       0.569224        15.4894 
 156   0.0000       0.570599        15.5268 
 157   0.0000       0.576720        15.6933 
 158   0.0000       0.581560        15.8250 
 159   0.0000       0.586605        15.9623 
 160   0.0000       0.587881        15.9970 
 161   0.0000       0.596429        16.2296 
 162   0.0000       0.597299        16.2533 
 163   0.0000       0.603631        16.4256 
 164   0.0000       0.606520        16.5042 
 165   0.0000       0.608098        16.5472 
 166   0.0000       0.611481        16.6393 
 167   0.0000       0.614876        16.7316 
 168   0.0000       0.618502        16.8303 
 169   0.0000       0.620469        16.8838 
 170   0.0000       0.628818        17.1110 
 171   0.0000       0.630515        17.1572 
 172   0.0000       0.633859        17.2482 
 173   0.0000       0.638395        17.3716 
 174   0.0000       0.640953        17.4412 
 175   0.0000       0.647252        17.6126 
 176   0.0000       0.652752        17.7623 
 177   0.0000       0.655648        17.8411 
 178   0.0000       0.658239        17.9116 
 179   0.0000       0.659986        17.9591 
 180   0.0000       0.662697        18.0329 
 181   0.0000       0.674666        18.3586 
 182   0.0000       0.681752        18.5514 
 183   0.0000       0.687246        18.7009 
 184   0.0000       0.689349        18.7581 
 185   0.0000       0.699596        19.0370 
 186   0.0000       0.701122        19.0785 
 187   0.0000       0.705218        19.1899 
 188   0.0000       0.712611        19.3911 
 189   0.0000       0.715584        19.4720 
 190   0.0000       0.724019        19.7015 
 191   0.0000       0.731010        19.8918 
 192   0.0000       0.735373        20.0105 
 193   0.0000       0.740371        20.1465 
 194   0.0000       0.742520        20.2050 
 195   0.0000       0.748899        20.3786 
 196   0.0000       0.758187        20.6313 
 197   0.0000       0.761992        20.7349 
 198   0.0000       0.765611        20.8333 
 199   0.0000       0.770369        20.9628 
 200   0.0000       0.779353        21.2073 
 201   0.0000       0.788007        21.4428 
 202   0.0000       0.790766        21.5178 
 203   0.0000       0.794078        21.6080 
 204   0.0000       0.798323        21.7235 
 205   0.0000       0.807857        21.9829 
 206   0.0000       0.813256        22.1298 
 207   0.0000       0.818202        22.2644 
 208   0.0000       0.824840        22.4450 
 209   0.0000       0.827787        22.5252 
 210   0.0000       0.832470        22.6527 
 211   0.0000       0.840553        22.8726 
 212   0.0000       0.841790        22.9063 
 213   0.0000       0.847874        23.0718 
 214   0.0000       0.848965        23.1015 
 215   0.0000       0.849509        23.1163 
 216   0.0000       0.855359        23.2755 
 217   0.0000       0.860580        23.4176 
 218   0.0000       0.871393        23.7118 
 219   0.0000       0.873576        23.7712 
 220   0.0000       0.879101        23.9216 
 221   0.0000       0.880988        23.9729 
 222   0.0000       0.885779        24.1033 
 223   0.0000       0.888763        24.1845 
 224   0.0000       0.898965        24.4621 
 225   0.0000       0.899531        24.4775 
 226   0.0000       0.905082        24.6285 
 227   0.0000       0.905726        24.6460 
 228   0.0000       0.911170        24.7942 
 229   0.0000       0.920101        25.0372 
 230   0.0000       0.921144        25.0656 
 231   0.0000       0.924343        25.1527 
 232   0.0000       0.933812        25.4103 
 233   0.0000       0.938889        25.5485 
 234   0.0000       0.945203        25.7203 
 235   0.0000       0.948922        25.8215 
 236   0.0000       0.952924        25.9304 
 237   0.0000       0.957913        26.0661 
 238   0.0000       0.962553        26.1924 
 239   0.0000       0.967587        26.3294 
 240   0.0000       0.970478        26.4080 
 241   0.0000       0.974058        26.5055 
 242   0.0000       0.976494        26.5717 
 243   0.0000       0.981981        26.7211 
 244   0.0000       0.986837        26.8532 
 245   0.0000       0.994882        27.0721 
 246   0.0000       1.000863        27.2349 
 247   0.0000       1.003643        27.3105 
 248   0.0000       1.008359        27.4388 
 249   0.0000       1.016219        27.6527 
 250   0.0000       1.017448        27.6862 
 251   0.0000       1.022241        27.8166 
 252   0.0000       1.026260        27.9260 
 253   0.0000       1.030851        28.0509 
 254   0.0000       1.037828        28.2407 
 255   0.0000       1.039158        28.2769 
 256   0.0000       1.043714        28.4009 
 257   0.0000       1.049469        28.5575 
 258   0.0000       1.052399        28.6372 
 259   0.0000       1.060030        28.8449 
 260   0.0000       1.062865        28.9220 
 261   0.0000       1.065125        28.9835 
 262   0.0000       1.067685        29.0532 
 263   0.0000       1.071097        29.1460 
 264   0.0000       1.079556        29.3762 
 265   0.0000       1.083304        29.4782 
 266   0.0000       1.086861        29.5750 
 267   0.0000       1.097940        29.8765 
 268   0.0000       1.100140        29.9363 
 269   0.0000       1.107107        30.1259 
 270   0.0000       1.112811        30.2811 
 271   0.0000       1.113575        30.3019 
 272   0.0000       1.119252        30.4564 
 273   0.0000       1.126243        30.6466 
 274   0.0000       1.129529        30.7360 
 275   0.0000       1.136170        30.9168 
 276   0.0000       1.137934        30.9648 
 277   0.0000       1.139492        31.0072 
 278   0.0000       1.146944        31.2099 
 279   0.0000       1.153090        31.3772 
 280   0.0000       1.154010        31.4022 
 281   0.0000       1.156182        31.4613 
 282   0.0000       1.163981        31.6735 
 283   0.0000       1.166865        31.7520 
 284   0.0000       1.175656        31.9912 
 285   0.0000       1.176835        32.0233 
 286   0.0000       1.181928        32.1619 
 287   0.0000       1.182437        32.1757 
 288   0.0000       1.187821        32.3223 
 289   0.0000       1.190638        32.3989 
 290   0.0000       1.194580        32.5062 
 291   0.0000       1.195878        32.5415 
 292   0.0000       1.205167        32.7943 
 293   0.0000       1.206874        32.8407 
 294   0.0000       1.213779        33.0286 
 295   0.0000       1.218190        33.1486 
 296   0.0000       1.220899        33.2224 
 297   0.0000       1.221718        33.2446 
 298   0.0000       1.225258        33.3410 
 299   0.0000       1.231104        33.5000 
 300   0.0000       1.241874        33.7931 
 301   0.0000       1.243789        33.8452 
 302   0.0000       1.249820        34.0093 
 303   0.0000       1.252134        34.0723 
 304   0.0000       1.254986        34.1499 
 305   0.0000       1.260357        34.2961 
 306   0.0000       1.264525        34.4095 
 307   0.0000       1.265408        34.4335 
 308   0.0000       1.267744        34.4971 
 309   0.0000       1.275361        34.7044 
 310   0.0000       1.277617        34.7657 
 311   0.0000       1.285140        34.9704 
 312   0.0000       1.291507        35.1437 
 313   0.0000       1.294228        35.2177 
 314   0.0000       1.296784        35.2873 
 315   0.0000       1.300656        35.3926 
 316   0.0000       1.302998        35.4564 
 317   0.0000       1.308070        35.5944 
 318   0.0000       1.316171        35.8148 
 319   0.0000       1.322145        35.9774 
 320   0.0000       1.325233        36.0614 
 321   0.0000       1.328476        36.1497 
 322   0.0000       1.331046        36.2196 
 323   0.0000       1.335706        36.3464 
 324   0.0000       1.344362        36.5820 
 325   0.0000       1.348335        36.6900 
 326   0.0000       1.349630        36.7253 
 327   0.0000       1.354291        36.8521 
 328   0.0000       1.357619        36.9427 
 329   0.0000       1.366333        37.1798 
 330   0.0000       1.376992        37.4699 
 331   0.0000       1.381311        37.5874 
 332   0.0000       1.384491        37.6739 
 333   0.0000       1.389533        37.8111 
 334   0.0000       1.392038        37.8793 
 335   0.0000       1.399252        38.0756 
 336   0.0000       1.405107        38.2349 
 337   0.0000       1.411080        38.3974 
 338   0.0000       1.414350        38.4864 
 339   0.0000       1.418320        38.5945 
 340   0.0000       1.423154        38.7260 
 341   0.0000       1.425338        38.7854 
 342   0.0000       1.430785        38.9336 
 343   0.0000       1.439409        39.1683 
 344   0.0000       1.441789        39.2331 
 345   0.0000       1.451049        39.4850 
 346   0.0000       1.455686        39.6112 
 347   0.0000       1.465467        39.8774 
 348   0.0000       1.468998        39.9735 
 349   0.0000       1.472685        40.0738 
 350   0.0000       1.474850        40.1327 
 351   0.0000       1.485989        40.4358 
 352   0.0000       1.493540        40.6413 
 353   0.0000       1.502000        40.8715 
 354   0.0000       1.505245        40.9598 
 355   0.0000       1.509627        41.0790 
 356   0.0000       1.514611        41.2147 
 357   0.0000       1.519055        41.3356 
 358   0.0000       1.524648        41.4878 
 359   0.0000       1.527308        41.5602 
 360   0.0000       1.536616        41.8134 
 361   0.0000       1.538089        41.8535 
 362   0.0000       1.554249        42.2933 
 363   0.0000       1.561218        42.4829 
 364   0.0000       1.573602        42.8199 
 365   0.0000       1.578334        42.9487 
 366   0.0000       1.586734        43.1772 
 367   0.0000       1.590847        43.2891 
 368   0.0000       1.602209        43.5983 
 369   0.0000       1.610598        43.8266 
 370   0.0000       1.618995        44.0551 
 371   0.0000       1.622766        44.1577 
 372   0.0000       1.625819        44.2408 
 373   0.0000       1.640870        44.6503 
 374   0.0000       1.643729        44.7281 
 375   0.0000       1.651014        44.9264 
 376   0.0000       1.653796        45.0021 
 377   0.0000       1.661837        45.2209 
 378   0.0000       1.663542        45.2673 
 379   0.0000       1.676138        45.6100 
 380   0.0000       1.682415        45.7808 
 381   0.0000       1.694408        46.1072 
 382   0.0000       1.702946        46.3395 
 383   0.0000       1.714682        46.6589 
 384   0.0000       1.719082        46.7786 
 385   0.0000       1.721207        46.8364 
 386   0.0000       1.730462        47.0883 
 387   0.0000       1.733560        47.1726 
 388   0.0000       1.741516        47.3891 
 389   0.0000       1.743025        47.4301 
 390   0.0000       1.750969        47.6463 
 391   0.0000       1.758451        47.8499 
 392   0.0000       1.765689        48.0468 
 393   0.0000       1.773605        48.2622 
 394   0.0000       1.782415        48.5020 
 395   0.0000       1.787371        48.6368 
 396   0.0000       1.791539        48.7502 
 397   0.0000       1.800522        48.9947 
 398   0.0000       1.804369        49.0994 
 399   0.0000       1.809097        49.2280 
 400   0.0000       1.817023        49.4437 
 401   0.0000       1.822637        49.5965 
 402   0.0000       1.830029        49.7976 
 403   0.0000       1.839178        50.0466 
 404   0.0000       1.843497        50.1641 
 405   0.0000       1.849832        50.3365 
 406   0.0000       1.859490        50.5993 
 407   0.0000       1.863176        50.6996 
 408   0.0000       1.865916        50.7741 
 409   0.0000       1.876399        51.0594 
 410   0.0000       1.882552        51.2268 
 411   0.0000       1.885956        51.3195 
 412   0.0000       1.893503        51.5248 
 413   0.0000       1.907165        51.8966 
 414   0.0000       1.914854        52.1058 
 415   0.0000       1.917712        52.1836 
 416   0.0000       1.921262        52.2802 
 417   0.0000       1.927794        52.4579 
 418   0.0000       1.936605        52.6977 
 419   0.0000       1.941108        52.8202 
 420   0.0000       1.946623        52.9703 
 421   0.0000       1.953686        53.1625 
 422   0.0000       1.954691        53.1898 
 423   0.0000       1.962260        53.3958 
 424   0.0000       1.965055        53.4719 
 425   0.0000       1.972596        53.6771 
 426   0.0000       1.976310        53.7781 
 427   0.0000       1.978441        53.8361 
 428   0.0000       1.987300        54.0772 
 429   0.0000       1.995136        54.2904 
 430   0.0000       1.996637        54.3313 
 431   0.0000       2.008550        54.6554 
 432   0.0000       2.011408        54.7332 
 433   0.0000       2.015091        54.8334 
 434   0.0000       2.015406        54.8420 
 435   0.0000       2.026811        55.1523 
 436   0.0000       2.035699        55.3942 
 437   0.0000       2.038909        55.4815 
 438   0.0000       2.049133        55.7597 
 439   0.0000       2.053660        55.8829 
 440   0.0000       2.061439        56.0946 
 441   0.0000       2.062923        56.1350 
 442   0.0000       2.068772        56.2941 
 443   0.0000       2.071138        56.3585 
 444   0.0000       2.083325        56.6902 
 445   0.0000       2.086775        56.7840 
 446   0.0000       2.092211        56.9319 
 447   0.0000       2.099836        57.1395 
 448   0.0000       2.101653        57.1889 
 449   0.0000       2.103765        57.2464 
 450   0.0000       2.108949        57.3874 
 451   0.0000       2.113210        57.5034 
 452   0.0000       2.123338        57.7790 
 453   0.0000       2.125222        57.8302 
 454   0.0000       2.131188        57.9926 
 455   0.0000       2.138909        58.2027 
 456   0.0000       2.139438        58.2171 
 457   0.0000       2.142336        58.2959 
 458   0.0000       2.144246        58.3479 
 459   0.0000       2.148403        58.4610 
 460   0.0000       2.160779        58.7978 
 461   0.0000       2.162228        58.8372 
 462   0.0000       2.168372        59.0044 
 463   0.0000       2.174422        59.1690 
 464   0.0000       2.175247        59.1915 
 465   0.0000       2.179305        59.3019 
 466   0.0000       2.184504        59.4434 
 467   0.0000       2.186198        59.4895 
 468   0.0000       2.191485        59.6333 
 469   0.0000       2.202921        59.9445 
 470   0.0000       2.204203        59.9794 
 471   0.0000       2.211628        60.1815 
 472   0.0000       2.215146        60.2772 
 473   0.0000       2.218333        60.3639 
 474   0.0000       2.225324        60.5541 
 475   0.0000       2.229463        60.6668 
 476   0.0000       2.235753        60.8379 
 477   0.0000       2.240960        60.9796 
 478   0.0000       2.244712        61.0817 
 479   0.0000       2.247641        61.1614 
 480   0.0000       2.254592        61.3506 
 481   0.0000       2.259296        61.4786 
 482   0.0000       2.265159        61.6381 
 483   0.0000       2.266499        61.6746 
 484   0.0000       2.276608        61.9496 
 485   0.0000       2.279024        62.0154 
 486   0.0000       2.284536        62.1654 
 487   0.0000       2.285811        62.2001 
 488   0.0000       2.289103        62.2897 
 489   0.0000       2.298325        62.5406 
 490   0.0000       2.301794        62.6350 
 491   0.0000       2.305715        62.7417 
 492   0.0000       2.309354        62.8407 
 493   0.0000       2.311630        62.9026 
 494   0.0000       2.317758        63.0694 
 495   0.0000       2.323696        63.2310 
 496   0.0000       2.330078        63.4046 
 497   0.0000       2.333688        63.5029 
 498   0.0000       2.336905        63.5904 
 499   0.0000       2.339935        63.6729 
 500   0.0000       2.341147        63.7058 
 501   0.0000       2.348588        63.9083 
 502   0.0000       2.351380        63.9843 
 503   0.0000       2.355518        64.0969 
 504   0.0000       2.360763        64.2396 
 505   0.0000       2.363697        64.3195 
 506   0.0000       2.367869        64.4330 
 507   0.0000       2.377404        64.6925 
 508   0.0000       2.378877        64.7325 
 509   0.0000       2.388158        64.9851 
 510   0.0000       2.391566        65.0778 
 511   0.0000       2.402908        65.3865 
 512   0.0000       2.404658        65.4341 
 513   0.0000       2.415892        65.7398 
 514   0.0000       2.417019        65.7704 
 515   0.0000       2.424883        65.9844 
 516   0.0000       2.427566        66.0574 
 517   0.0000       2.429038        66.0975 
 518   0.0000       2.433782        66.2266 
 519   0.0000       2.440164        66.4002 
 520   0.0000       2.444890        66.5288 
 521   0.0000       2.445220        66.5378 
 522   0.0000       2.457640        66.8758 
 523   0.0000       2.463438        67.0336 
 524   0.0000       2.465165        67.0806 
 525   0.0000       2.465905        67.1007 
 526   0.0000       2.471134        67.2430 
 527   0.0000       2.475424        67.3597 
 528   0.0000       2.477558        67.4178 
 529   0.0000       2.487047        67.6760 
 530   0.0000       2.492138        67.8145 
 531   0.0000       2.495744        67.9127 
 532   0.0000       2.502109        68.0858 
 533   0.0000       2.505136        68.1682 
 534   0.0000       2.509851        68.2965 
 535   0.0000       2.514358        68.4192 
 536   0.0000       2.518788        68.5397 
 537   0.0000       2.524774        68.7026 
 538   0.0000       2.530173        68.8495 
 539   0.0000       2.531767        68.8929 
 540   0.0000       2.538848        69.0856 
 541   0.0000       2.541056        69.1457 
 542   0.0000       2.545217        69.2589 
 543   0.0000       2.552191        69.4487 
 544   0.0000       2.554242        69.5045 
 545   0.0000       2.559772        69.6549 
 546   0.0000       2.563472        69.7556 
 547   0.0000       2.572556        70.0028 
 548   0.0000       2.573685        70.0335 
 549   0.0000       2.580258        70.2124 
 550   0.0000       2.586017        70.3691 
 551   0.0000       2.591425        70.5163 
 552   0.0000       2.593439        70.5711 
 553   0.0000       2.596492        70.6541 
 554   0.0000       2.597514        70.6820 
 555   0.0000       2.603572        70.8468 
 556   0.0000       2.607640        70.9575 
 557   0.0000       2.614590        71.1466 
 558   0.0000       2.618918        71.2644 
 559   0.0000       2.622702        71.3674 
 560   0.0000       2.623191        71.3807 
 561   0.0000       2.632914        71.6452 
 562   0.0000       2.641518        71.8794 
 563   0.0000       2.642052        71.8939 
 564   0.0000       2.648463        72.0683 
 565   0.0000       2.657978        72.3272 
 566   0.0000       2.659827        72.3776 
 567   0.0000       2.664693        72.5100 
 568   0.0000       2.667020        72.5733 
 569   0.0000       2.677594        72.8610 
 570   0.0000       2.680224        72.9326 
 571   0.0000       2.680972        72.9530 
 572   0.0000       2.689764        73.1922 
 573   0.0000       2.693546        73.2951 
 574   0.0000       2.695133        73.3383 
 575   0.0000       2.699176        73.4483 
 576   0.0000       2.702357        73.5349 
 577   0.0000       2.714280        73.8593 
 578   0.0000       2.718758        73.9812 
 579   0.0000       2.724894        74.1481 
 580   0.0000       2.727389        74.2160 
 581   0.0000       2.732364        74.3514 
 582   0.0000       2.739131        74.5355 
 583   0.0000       2.744925        74.6932 
 584   0.0000       2.746226        74.7286 
 585   0.0000       2.747441        74.7617 
 586   0.0000       2.753991        74.9399 
 587   0.0000       2.757435        75.0336 
 588   0.0000       2.759223        75.0823 
 589   0.0000       2.766746        75.2870 
 590   0.0000       2.773383        75.4676 
 591   0.0000       2.775789        75.5331 
 592   0.0000       2.781543        75.6896 
 593   0.0000       2.786080        75.8131 
 594   0.0000       2.792865        75.9977 
 595   0.0000       2.795201        76.0613 
 596   0.0000       2.803463        76.2861 
 597   0.0000       2.804619        76.3176 
 598   0.0000       2.809104        76.4396 
 599   0.0000       2.816593        76.6434 
 600   0.0000       2.819631        76.7260 
 601   0.0000       2.821929        76.7886 
 602   0.0000       2.826022        76.9000 
 603   0.0000       2.829063        76.9827 
 604   0.0000       2.839316        77.2617 
 605   0.0000       2.845108        77.4193 
 606   0.0000       2.851258        77.5867 
 607   0.0000       2.857560        77.7581 
 608   0.0000       2.859183        77.8023 
 609   0.0000       2.862918        77.9039 
 610   0.0000       2.872454        78.1634 
 611   0.0000       2.876006        78.2601 
 612   0.0000       2.879179        78.3464 
 613   0.0000       2.881290        78.4039 
 614   0.0000       2.886941        78.5577 
 615   0.0000       2.891642        78.6856 
 616   0.0000       2.899001        78.8858 
 617   0.0000       2.904101        79.0246 
 618   0.0000       2.904616        79.0386 
 619   0.0000       2.913452        79.2791 
 620   0.0000       2.915353        79.3308 
 621   0.0000       2.921303        79.4927 
 622   0.0000       2.928502        79.6886 
 623   0.0000       2.932442        79.7958 
 624   0.0000       2.942881        80.0799 
 625   0.0000       2.944038        80.1114 
 626   0.0000       2.951192        80.3060 
 627   0.0000       2.957103        80.4669 
 628   0.0000       2.962358        80.6099 
 629   0.0000       2.966231        80.7153 
 630   0.0000       2.970215        80.8236 
 631   0.0000       2.975650        80.9715 
 632   0.0000       2.982936        81.1698 
 633   0.0000       2.985019        81.2265 
 634   0.0000       2.992596        81.4327 
 635   0.0000       2.994182        81.4758 
 636   0.0000       3.008432        81.8636 
 637   0.0000       3.010622        81.9232 
 638   0.0000       3.013291        81.9958 
 639   0.0000       3.016678        82.0880 
 640   0.0000       3.023762        82.2807 
 641   0.0000       3.027538        82.3835 
 642   0.0000       3.029658        82.4412 
 643   0.0000       3.033955        82.5581 
 644   0.0000       3.041534        82.7644 
 645   0.0000       3.051914        83.0468 
 646   0.0000       3.054175        83.1083 
 647   0.0000       3.060335        83.2760 
 648   0.0000       3.062660        83.3392 
 649   0.0000       3.072285        83.6011 
 650   0.0000       3.073333        83.6297 
 651   0.0000       3.077170        83.7341 
 652   0.0000       3.081535        83.8528 
 653   0.0000       3.094897        84.2164 
 654   0.0000       3.095587        84.2352 
 655   0.0000       3.101613        84.3992 
 656   0.0000       3.112649        84.6995 
 657   0.0000       3.114810        84.7583 
 658   0.0000       3.121573        84.9423 
 659   0.0000       3.123563        84.9965 
 660   0.0000       3.128909        85.1420 
 661   0.0000       3.136230        85.3412 
 662   0.0000       3.139923        85.4417 
 663   0.0000       3.143137        85.5291 
 664   0.0000       3.153036        85.7985 
 665   0.0000       3.162715        86.0618 
 666   0.0000       3.166561        86.1665 
 667   0.0000       3.173170        86.3463 
 668   0.0000       3.175086        86.3985 
 669   0.0000       3.180794        86.5538 
 670   0.0000       3.183400        86.6247 
 671   0.0000       3.192406        86.8698 
 672   0.0000       3.195954        86.9663 
 673   0.0000       3.201981        87.1303 
 674   0.0000       3.209930        87.3466 
 675   0.0000       3.216254        87.5187 
 676   0.0000       3.220609        87.6372 
 677   0.0000       3.227456        87.8235 
 678   0.0000       3.237874        88.1070 
 679   0.0000       3.240548        88.1798 
 680   0.0000       3.247069        88.3572 
 681   0.0000       3.250344        88.4464 
 682   0.0000       3.251968        88.4905 
 683   0.0000       3.262273        88.7710 
 684   0.0000       3.267306        88.9079 
 685   0.0000       3.271044        89.0096 
 686   0.0000       3.279617        89.2429 
 687   0.0000       3.286471        89.4294 
 688   0.0000       3.290612        89.5421 
 689   0.0000       3.298618        89.7600 
 690   0.0000       3.304789        89.9279 
 691   0.0000       3.307388        89.9986 
 692   0.0000       3.312421        90.1356 
 693   0.0000       3.319100        90.3173 
 694   0.0000       3.321716        90.3885 
 695   0.0000       3.326863        90.5285 
 696   0.0000       3.332750        90.6887 
 697   0.0000       3.335514        90.7640 
 698   0.0000       3.343806        90.9896 
 699   0.0000       3.358731        91.3957 
 700   0.0000       3.362279        91.4923 
 701   0.0000       3.371199        91.7350 
 702   0.0000       3.373593        91.8001 
 703   0.0000       3.379785        91.9686 
 704   0.0000       3.388537        92.2068 
 705   0.0000       3.391416        92.2851 
 706   0.0000       3.392467        92.3137 
 707   0.0000       3.394085        92.3577 
 708   0.0000       3.406555        92.6971 
 709   0.0000       3.413193        92.8777 
 710   0.0000       3.422805        93.1393 
 711   0.0000       3.425166        93.2035 
 712   0.0000       3.428434        93.2924 
 713   0.0000       3.432010        93.3897 
 714   0.0000       3.436731        93.5182 
 715   0.0000       3.445421        93.7547 
 716   0.0000       3.445873        93.7670 
 717   0.0000       3.451273        93.9139 
 718   0.0000       3.457900        94.0943 
 719   0.0000       3.462164        94.2103 
 720   0.0000       3.476548        94.6017 
 721   0.0000       3.479929        94.6937 
 722   0.0000       3.485500        94.8453 
 723   0.0000       3.494547        95.0914 
 724   0.0000       3.500022        95.2404 
 725   0.0000       3.509440        95.4967 
 726   0.0000       3.512767        95.5872 
 727   0.0000       3.516837        95.6980 
 728   0.0000       3.526770        95.9683 
 729   0.0000       3.531624        96.1004 
 730   0.0000       3.533472        96.1507 
 731   0.0000       3.542693        96.4016 
 732   0.0000       3.544149        96.4412 
 733   0.0000       3.551373        96.6378 
 734   0.0000       3.554111        96.7123 
 735   0.0000       3.558439        96.8301 
 736   0.0000       3.559251        96.8521 
 737   0.0000       3.567450        97.0752 
 738   0.0000       3.578473        97.3752 
 739   0.0000       3.583114        97.5015 
 740   0.0000       3.590039        97.6899 
 741   0.0000       3.593245        97.7772 
 742   0.0000       3.600581        97.9768 
 743   0.0000       3.607575        98.1671 
 744   0.0000       3.611493        98.2737 
 745   0.0000       3.616911        98.4212 
 746   0.0000       3.625457        98.6537 
 747   0.0000       3.636198        98.9460 
 748   0.0000       3.637239        98.9743 
 749   0.0000       3.639404        99.0332 
 750   0.0000       3.653718        99.4227 
 751   0.0000       3.657935        99.5375 
 752   0.0000       3.669363        99.8484 
 753   0.0000       3.678757       100.1041 
 754   0.0000       3.681743       100.1853 
 755   0.0000       3.682730       100.2122 
 756   0.0000       3.699075       100.6570 
 757   0.0000       3.700029       100.6829 
 758   0.0000       3.704892       100.8152 
 759   0.0000       3.712388       101.0192 
 760   0.0000       3.714711       101.0824 
 761   0.0000       3.723276       101.3155 
 762   0.0000       3.726240       101.3961 
 763   0.0000       3.731890       101.5499 
 764   0.0000       3.743864       101.8757 
 765   0.0000       3.749205       102.0211 
 766   0.0000       3.754007       102.1517 
 767   0.0000       3.765681       102.4694 
 768   0.0000       3.770560       102.6022 
 769   0.0000       3.776460       102.7627 
 770   0.0000       3.787192       103.0547 
 771   0.0000       3.788911       103.1015 
 772   0.0000       3.804600       103.5284 
 773   0.0000       3.808417       103.6323 
 774   0.0000       3.810806       103.6973 
 775   0.0000       3.815450       103.8237 
 776   0.0000       3.820722       103.9671 
 777   0.0000       3.823246       104.0358 
 778   0.0000       3.837308       104.4185 
 779   0.0000       3.841260       104.5260 
 780   0.0000       3.850833       104.7865 
 781   0.0000       3.852770       104.8392 
 782   0.0000       3.859111       105.0118 
 783   0.0000       3.864839       105.1676 
 784   0.0000       3.867389       105.2370 
 785   0.0000       3.878237       105.5322 
 786   0.0000       3.883090       105.6643 
 787   0.0000       3.888897       105.8223 
 788   0.0000       3.893156       105.9382 
 789   0.0000       3.896542       106.0303 
 790   0.0000       3.900584       106.1403 
 791   0.0000       3.910868       106.4201 
 792   0.0000       3.914302       106.5136 
 793   0.0000       3.921478       106.7088 
 794   0.0000       3.925608       106.8212 
 795   0.0000       3.933693       107.0412 
 796   0.0000       3.941510       107.2539 
 797   0.0000       3.953068       107.5685 
 798   0.0000       3.957794       107.6971 
 799   0.0000       3.960267       107.7643 
 800   0.0000       3.966725       107.9401 
 801   0.0000       3.974378       108.1483 
 802   0.0000       3.979388       108.2846 
 803   0.0000       3.985590       108.4534 
 804   0.0000       3.993162       108.6595 
 805   0.0000       3.997129       108.7674 
 806   0.0000       4.000724       108.8652 
 807   0.0000       4.008263       109.0704 
 808   0.0000       4.012738       109.1922 
 809   0.0000       4.017070       109.3100 
 810   0.0000       4.026868       109.5767 
 811   0.0000       4.035147       109.8019 
 812   0.0000       4.045595       110.0862 
[...]
Spin component scaling                      .... not used

PASS-1: Formation of initial guess LMP2 amplitudes
Initial amplitudes guess done. Entering LMP2 iteration loop:
   Max. no of iterations          ...  50
   Energy convergence tolerance   ...    1.0e-07
   Residual convergence tolerance ...    5.0e-07
   Fock matrix cutoff             ...    1.0e-05 Eh
   DIIS convergence acceleration parameters:
        Max # vectors in DIIS     ... 7
        Start iteration of DIIS   ... 0
        Levelshift                ... 2.000e-01
        Damping factor 1          ... 5.000e-01
        Damping factor 2          ... 1.000e+00
   L-MP2 PNO cut-off              ...   1.0e-09
   L-MP2 PNO cut-off (core)       ...   1.0e-11
                           *** Turning on DIIS ***
LMP2-Iter=   0:  ELMP2= -4.557052735523  DE=   1.0e-01 RMAX=   1.8e-02
LMP2-Iter=   1:  ELMP2= -4.611637501020  DE=   5.5e-02 RMAX=   8.7e-03
LMP2-Iter=   2:  ELMP2= -4.622503200305  DE=   1.1e-02 RMAX=   3.4e-03
LMP2-Iter=   3:  ELMP2= -4.623982912569  DE=   1.5e-03 RMAX=   1.2e-03
LMP2-Iter=   4:  ELMP2= -4.623990924186  DE=   8.0e-06 RMAX=   3.3e-04
LMP2-Iter=   5:  ELMP2= -4.623952169900  DE=   3.9e-05 RMAX=   1.0e-04
LMP2-Iter=   6:  ELMP2= -4.623945467812  DE=   6.7e-06 RMAX=   2.6e-05
LMP2-Iter=   7:  ELMP2= -4.623946081180  DE=   6.1e-07 RMAX=   8.3e-06
LMP2-Iter=   8:  ELMP2= -4.623946618413  DE=   5.4e-07 RMAX=   2.3e-06
LMP2-Iter=   9:  ELMP2= -4.623946580091  DE=   3.8e-08 RMAX=   7.4e-07
LMP2-Iter=  10:  ELMP2= -4.623946585229  DE=   5.1e-09 RMAX=   1.7e-07
LMP2-Iter=  11:  ELMP2= -4.623946566038  DE=   1.9e-08 RMAX=   4.3e-08 => CONVERGED
PASS-2: Formation of Pair natural orbitals
   .... Finished loop over pairs

 PNO Occupation Number Statistics: 
  | Av. % of trace(Dij) retained        ...  97.925089021361
  | sigma^2 in % of trace(Dij) retained ...   7.91e+00
  | Av. % of trace(Di) retained         ...  99.999529765355
  | sigma^2 in % of trace(Di) retained  ...   1.87e-08
 Distributions of % trace(Dij) recovered:
  |       >= 99.9  ...   213 ( 11.7 % of all pairs)
  |   [70.0, 80.0) ...     5 (  0.3 % of all pairs)
  |   [80.0, 90.0) ...    56 (  3.1 % of all pairs)
  |   [90.0, 99.0) ...  1003 ( 54.9 % of all pairs)
  |   [99.0, 99.9) ...   549 ( 30.1 % of all pairs)
 Distributions of % trace(Di) recovered :
  |       >= 99.9  ...    64 (100.0 % of all I-pairs )

Making pair pair interaction lists          ... done

                       ===========================
                       1253 OF 1826 PAIRS ARE KEPT
                       ===========================

Total time spent in the initial guess                 ...  6775.261 sec
L-MP2 correlation energy (all non-screened pairs)     ...      -4.623946566038 Eh
L-MP2 PNO error correction                            ...      -0.000350322695 Eh
                                                          --------------------
Initial total L-MP2 energy (non-screened pairs)       ...      -4.624296888733 Eh

Initial PNO correlation energy                        ...      -4.612368454048 Eh
sum of pair energies estimated for screened out pairs ...      -0.000105503606 Eh
sum of MP2 pair energies for pairs that were not kept ...      -0.003008572519 Eh
sum of PNO error estimates for the kept pairs         ...      -0.009458472307 Eh
                                                          --------------------
sum of all corrections                                         -0.012572548432
Initial total correlation energy                               -4.624941002480
Thresholds for map construction and integral transformation for fine MP2 and CCSD(T) calculation:
   TCutMKN   ...     1.0e-03
   TCutDO    ...     5.0e-03
   TCutPairs ...     1.0e-05
   TCutCMO   ...     1.0e-03
   TCutCPAO  ...     1.0e-03

Time for aux screen maps:            0.027
Time for maps after fine MP2:            0.207
-----------------------------
LOCAL RI TRANSFORMATION (IJV)
-----------------------------

Orbital window:      23 to 86
Basis functions:   1865 (545 shells)
Aux. functions:    4136 (990 shells)
Use SHARK:           on

Processing maps (0.0 sec)
Average map sizes:
   Aux shells -> MOs(i)           57.7
   Aux shells -> MOs(j)           64.0
   MOs        -> AO shells       483.2

Calculating integrals (36.7 sec, 116.998 MB)
Sorting integrals (0.4 sec, 116.951 MB)
Total time for the integral transformation: 37.1 sec
--------------------------------
LOCAL RI TRANSFORMATION (VABPAO)
--------------------------------

Number of PAOs:    1865
Basis functions:   1865 (545 shells)
Aux. functions:    4136 (990 shells)
Use SHARK:           on

Processing maps (0.0 sec)
Average map sizes:
   Aux shells -> PAOs           1847.0
   PAOs       -> AO shells       534.1

Calculating integrals (779.9 sec, 107703.720 MB)
Finished


-------------------------------------
Pair Pair Term precalculation with     
RI-(ij|mn) and (im|jn) transformation  
ON THE FLY                             
-------------------------------------

   IBatch   1 (of  10)              ... done (  587.266 sec)
   IBatch   2 (of  10)              ... done (  584.319 sec)
   IBatch   3 (of  10)              ... done (  763.868 sec)
   IBatch   4 (of  10)              ... done (  933.810 sec)
   IBatch   5 (of  10)              ... done (  790.834 sec)
   IBatch   6 (of  10)              ... done (  932.634 sec)
   IBatch   7 (of  10)              ... done (  908.840 sec)
   IBatch   8 (of  10)              ... done ( 1035.337 sec)
   IBatch   9 (of  10)              ... done ( 1101.029 sec)
   IBatch  10 (of  10)              ... done ( 1249.821 sec)
Total EXT                           ...        8887.785 sec

---------------------
RI-PNO TRANSFORMATION
---------------------

Total Number of PNOs                   ... 43797
Average number of PNOs per pair        ...    34
Maximal number of PNOs per pair        ...   121
   #pairs with  1 -  5 PNOs   :    0
   #pairs with  6 - 10 PNOs   :  303
   #pairs with 11 - 15 PNOs   :  160
   #pairs with 16 - 20 PNOs   :   81
   #pairs with 21 - 25 PNOs   :   76
   #pairs with 26 - 30 PNOs   :   78
   #pairs with 31 - 35 PNOs   :   82
   #pairs with 36 - 40 PNOs   :   61
   #pairs with 41 - 45 PNOs   :   40
   #pairs with 46 - 50 PNOs   :   29
   #pairs with 51 - 55 PNOs   :   34
   #pairs with 56 - 60 PNOs   :   51
   #pairs with 61 - 65 PNOs   :   30
   #pairs with 66 - 70 PNOs   :   23
   #pairs with 71 - 75 PNOs   :   14
   #pairs with 76 - 80 PNOs   :   51
   #pairs with 81 - 85 PNOs   :   42
   #pairs with 86 - 90 PNOs   :   21
   #pairs with 91 - 95 PNOs   :   47
   #pairs with > 96 PNOs      :   30

Generation of (ij|ab)[P] integrals            ... on
Generation of (ia|bc)[P],(ja|bc)[P] integrals ... on
Storage of 3 and 4 external integrals         ... on
Generation of ALL (ka|bc)[P] integrals        ... on
Keep RI integrals in memory                   ... off

Ibatch:  1 (of  1)
Starting 2-4 index PNO integral generation ... done

Timings:
Total PNO integral transformation time     ...       3768.852 sec
Size of the 3-external file                ...      1400 MB
Size of the 4-external file                ...     14094 MB
Size of the IKJL file                      ...         1 MB
Size of the all 3-external file            ...     42166 MB
Size of the 1-external file                ...        61 MB

Making pair/pair overlap matrices          ... done ( 1029.738 sec)
Size of the pair overlap file              ... 10151 MB
Redoing the guess amplitudes               ... done (    0.187 sec)

-------------------------
FINAL STARTUP INFORMATION
-------------------------

E(0)                                       ...  -1154.792866225
E(L-MP2)                                   ...     -4.624296889
E(L-MP2) including corrections             ...     -4.624941002
Initial E(tot)                             ...  -1159.417807228
<T|T>                                      ...      1.127709737
Number of pairs included                   ... 1253
Total number of pairs                      ... 2080

------------------------------------------------
                  RHF COUPLED CLUSTER ITERATIONS
------------------------------------------------

Number of PNO amplitudes to be optimized   ...      2518831
Number of non-PNO amplitudes               ...   3961088852
Untruncated number of regular amplitudes   ...   6575470720

Iter       E(tot)           E(Corr)          Delta-E          Residual     Time
  0  -1159.245942019     -4.440503245      0.183793644      0.017031625 3480.27
                           *** Turning on DIIS ***
  1  -1159.310126473     -4.504687699     -0.064184454      0.012429582 3718.20
  2  -1159.409566511     -4.604127737     -0.099440039      0.006415715 3778.32
  3  -1159.433578689     -4.628139915     -0.024012178      0.003723845 3697.98
  4  -1159.440687629     -4.635248856     -0.007108941      0.001806131 3760.94
  5  -1159.442891009     -4.637452235     -0.002203380      0.000705606 3800.96
  6  -1159.443412912     -4.637974138     -0.000521903      0.000302727 3626.67
  7  -1159.443508970     -4.638070196     -0.000096058      0.000156321 3752.72
  8  -1159.443524538     -4.638085764     -0.000015568      0.000078582 3457.47
  9  -1159.443500960     -4.638062187      0.000023578      0.000044287 3442.82
 10  -1159.443504939     -4.638066165     -0.000003978      0.000032336 3374.93
 11  -1159.443502019     -4.638063245      0.000002920      0.000022913 3196.86
 12  -1159.443501209     -4.638062435      0.000000810      0.000015311 3272.77
 13  -1159.443499232     -4.638060459      0.000001977      0.000009370 3296.28
               --- The Coupled-Cluster iterations have converged ---

----------------------
COUPLED CLUSTER ENERGY
----------------------

E(0)                                       ...  -1154.792866225
E(CORR)(strong-pairs)                      ...     -4.638060459
E(CORR)(weak-pairs)                        ...     -0.012572548
E(CORR)(corrected)                         ...     -4.650633007
E(TOT)                                     ...  -1159.443499232
Singles Norm <S|S>**1/2                    ...      0.156842321  
T1 diagnostic                              ...      0.013863034  

------------------
LARGEST AMPLITUDES
------------------
  64-> 87  64-> 87       0.060908
  72-> 87  72-> 87       0.059543
  65-> 87  65-> 87       0.052668
  71-> 87  71-> 87       0.052534
  62-> 87  62-> 87       0.050397
  65-> 87  64-> 87       0.047865
  61-> 87  61-> 87       0.047748
  72-> 87  71-> 87       0.047081
  56-> 90  56-> 90       0.042614
  62-> 87  61-> 87       0.041372
  45-> 87  45-> 87       0.039524
  86-> 87  86-> 87       0.037503
  80-> 87  80-> 87       0.036360
  63-> 91  63-> 91       0.035840
  42-> 87  42-> 87       0.035796
  51-> 87  51-> 87       0.035740


-------------------------------------------
DLPNO BASED TRIPLES CORRECTION
-------------------------------------------

Singles multiplier          ...  1.000000
TCutTNO                     ... 1.000e-09
TCutMP2Pairs                ... 1.000e-06
TCutDOStrong                ... 1.000e-02
TCutMKNStrong               ... 1.000e-02
TCutDOWeak                  ... 2.000e-02
TCutMKNWeak                 ... 1.000e-01

Fragment selection                          .... not used
Fock matrix occ-virt block is zero --> Setting DT_in_Triples to false.
Number of Triples that are to be computed   ...     23844

 . . . . . . . . .             (   5740.517 sec)
 . . . . . . . . .
10% done               (   6618.272 sec)
 . . . . . . . . .
20% done  
30% done               (  10470.778 sec)
 . . . . . . . . .
40% done               (  12855.515 sec)
 . . . . . . . . .
50% done  
60% done  
70% done               (  16987.233 sec)
 . . . . . . . . .
80% done  
90% done               (  15748.095 sec)
Triples timings:
Total time for T0               ... 76693.972 sec
Total time for Iterative (T)    ...     0.000 sec
Total time of overall (T)       ... 78958.435 sec

Triples List generation         ...     0.000 sec
TNO generation                  ...  8272.886 sec
Pair density generation         ...     0.065 sec
Look up tables                  ...     0.000 sec
Generating 3-index integrals    ... 56842.003 sec
  Make 4-ind.int. from 3-ind.int...   652.998 sec
  Projecting amplitudes (D + S) ... 10438.846 sec
  Downprojecting integrals      ...     0.026 sec
  Energy contr. (sum over a,b,c)...    33.623 sec
Fitting ET(->0)                 ...     0.000 sec

Everything after 3-index        ... 11578.407 sec

Timing details:
 TNO integrals                  ... 57474.333 sec
   Reading 3-index integrals    ...  1626.381 sec
   Sorting integrals            ...  4268.183 sec
       Sorting integrals 1      ...     0.024 sec
       Sorting integrals 2      ...  4200.772 sec
       Sorting integrals 3      ...    12.210 sec
       Sorting integrals 4      ...     1.439 sec
       Sorting integrals 5      ...    18.567 sec
       Sorting integrals 6      ...    35.170 sec
   Calculating local VM**-1/2   ...    63.981 sec
   Orthogonal. integrals        ...    88.269 sec
   Multipl. 3-index integrals   ... 51427.519 sec
   All concerning IRIab (w/TNO) ...   445.306 sec

 Calculate W0/W1                ...   452.841 sec
 W 3-ext contribution           ...   287.719 sec
 W 3-int contribution           ...   124.481 sec
 Sorting W                      ...    36.746 sec

 V exchange contribution        ...     8.441 sec

 Timings for Triples without generation
     of 3-index integrals       ... 11578.383 sec
       0 weak pairs             ...  8178.328 sec
       1 weak pair              ...  3400.054 sec
       2 weak pairs             ...     0.000 sec
       3 weak pairs             ...     0.000 sec
  Extra time for extrapolation  ...     0.000 sec

Number of Triples   (0, 1, 2, 3 weak pairs; overall):  14049    9795       0       0  ( 23844)
Number of Atoms     (0, 1, 2, 3 weak pairs; overall):   26.5    25.3     0.0     0.0  (    43)
Number of PAOs      (0, 1, 2, 3 weak pairs; overall): 1196.3  1148.2     0.0     0.0  (  1865)
Number of AuxFcns   (0, 1, 2, 3 weak pairs; overall):  934.1   632.8     0.0     0.0  (  4136)
Number of TNOs      (0, 1, 2, 3 weak pairs         ):   99.7    54.3     0.0     0.0
Aver. Number of NTNO, Atoms, PAOs, AuxFcns / Triples:  23844    81.1    26.0  1176.6   810.3

Triples Correction (T)                     ...     -0.211974800
Final correlation energy                   ...     -4.862607807
E(CCSD)                                    ...  -1159.443499232
E(CCSD(T))                                 ...  -1159.655474032



--------------------------------------------------------------------------------
                                    TIMINGS
--------------------------------------------------------------------------------


Total execution time                   ...   152374.428 sec

Localization of occupied MO's          ...       54.159 sec (  0.0%)
Fock Matrix Formation                  ...      721.325 sec (  0.5%)
Global overlap, Fock, MKN matrices     ...       14.664 sec (  0.0%)
Differential overlap integrals         ...        8.195 sec (  0.0%)
Organizing maps                        ...        0.543 sec (  0.0%)
RI 3-index integral generations        ...     1230.569 sec (  0.8%)
RI-PNO integral transformation         ...    14034.667 sec (  9.2%)
Initial Guess                          ...     7690.751 sec (  5.0%)
DIIS Solver                            ...      349.806 sec (  0.2%)
State Vector Update                    ...        0.221 sec (  0.0%)
Sigma-vector construction              ...    49640.697 sec ( 32.6%)
  <0|H|D>                              ...        0.004 sec (  0.0% of sigma)
  <D|H|D>(0-ext)                       ...    11700.445 sec ( 23.6% of sigma)
  <D|H|D>(2-ext Fock)                  ...        4.996 sec (  0.0% of sigma)
  <D|H|D>(2-ext)                       ...     3925.406 sec (  7.9% of sigma)
  <D|H|D>(4-ext)                       ...      196.161 sec (  0.4% of sigma)
  <D|H|D>(4-ext-corr)                  ...     1023.966 sec (  2.1% of sigma)
  CCSD doubles correction              ...      751.251 sec (  1.5% of sigma)
  <S|H|S>                              ...      231.201 sec (  0.5% of sigma)
  <S|H|D>(1-ext)                       ...       55.974 sec (  0.1% of sigma)
  <D|H|S>(1-ext)                       ...        4.335 sec (  0.0% of sigma)
  <S|H|D>(3-ext)                       ...       34.238 sec (  0.1% of sigma)
  CCSD singles correction              ...        0.003 sec (  0.0% of sigma)
  Fock-dressing                        ...    14170.257 sec ( 28.5% of sigma)
  Singles amplitudes                   ...      304.034 sec (  0.6% of sigma)
  (ik|jl)-dressing                     ...    15026.514 sec ( 30.3% of sigma)
  (ij|ab),(ia|jb)-dressing             ...     2182.717 sec (  4.4% of sigma)
  Pair energies                        ...        0.047 sec (  0.0% of sigma)
Total Time for computing (T)           ...    78958.571 sec ( 51.8% of ALL)


Maximum memory used throughout the entire MDCI-calculation: 10289.4 MB

-------------------------   --------------------
FINAL SINGLE POINT ENERGY     -1159.655474032362
-------------------------   --------------------


                            ***************************************
                            *     ORCA property calculations      *
                            ***************************************


  WARNING: The energy has been calculated at the MDCI level but the densities
           used in the property calculations are still SCF densities
           MDCI response densities have not been calculated 
           use %mdci Density linearized end
           or  %mdci Density unrelaxed end
           or  %mdci Density orbopt end

                                    ---------------------
                                    Active property flags
                                    ---------------------
   (+) Dipole Moment


------------------------------------------------------------------------------
                       ORCA ELECTRIC PROPERTIES CALCULATION
------------------------------------------------------------------------------

Dipole Moment Calculation                       ... on
Quadrupole Moment Calculation                   ... off
Polarizability Calculation                      ... off
GBWName                                         ... input.gbw
Electron density                                ... input.scfp
The origin for moment calculation is the CENTER OF MASS  = (20.307346, 17.939391 17.236609)

-------------
DIPOLE MOMENT
-------------
                                X             Y             Z
Electronic contribution:     22.48542      -7.15214      -0.11528
Nuclear contribution   :    -31.67995      10.71941       5.06507
                        -----------------------------------------
Total Dipole Moment    :     -9.19453       3.56727       4.94979
                        -----------------------------------------
Magnitude (a.u.)       :     11.03473
Magnitude (Debye)      :     28.04805



--------------------
Rotational spectrum 
--------------------
 
Rotational constants in cm-1:     0.015407     0.005218     0.004956 
Rotational constants in MHz :   461.876169   156.420661   148.589882 

 Dipole components along the rotational axes: 
x,y,z [a.u.] :    10.169206    -3.577282     2.357013 
x,y,z [Debye]:    25.848068    -9.092728     5.991052 

 

Timings for individual modules:

Sum of individual times         ...   158022.878 sec (=2633.715 min)
GTO integral calculation        ...       57.426 sec (=   0.957 min)   0.0 %
SCF iterations                  ...     5586.994 sec (=  93.117 min)   3.5 %
MDCI module                     ...   152378.459 sec (=2539.641 min)  96.4 %
                             ****ORCA TERMINATED NORMALLY****
TOTAL RUN TIME: 1 days 19 hours 53 minutes 50 seconds 841 msec
