LAMMPS data file for TITLE

50185 atoms
50211 bonds
10470 angles
25425 dihedrals
0 impropers

24 atom types
83 bond types
186 angle types
210 dihedral types

0.0 79.006 xlo xhi
0.0 79.682 ylo yhi
0.0 79.03 zlo zhi

Masses

1 14.01
2 1.008
3 12.01
4 1.008
5 1.008
6 1.008
7 32.06
8 12.01
9 16.0
10 16.0
11 1.008
12 1.008
13 1.008
14 1.008
15 12.01
16 1.008
17 16.0
18 16.0
19 12.01
20 1.008
21 16.0
22 1.008
23 22.99
24 16.0

Pair Coeffs

1 0.16999999991766696 3.2499985240310356
2 0.015700000004219245 1.069078461720523
3 0.10939999991572773 3.399669508450741
4 0.015700000062726104 1.9599771790073583
5 0.01570000002623629 2.649532787260222
6 0.01570000009846142 2.4713530426421655
7 0.25 3.563594872561357
8 0.08600000012835884 3.399669507944831
9 0.20999999984182244 2.9599219016446874
10 0.2104000002486992 3.066473387458142
11 0.046999999978903084 0.5379246460854297
12 0.015000000033271482 2.4214627154564856
13 0.014999999991481437 2.510552587583135
14 0.015000000064220668 2.5996424587350853
15 0.09879999999945692 3.3152123100281
16 0.016100000017917802 2.6254785220391277
17 0.14630000020251083 3.0481208738006513
18 0.0725999997220856 3.1560978003356794
19 0.1078000000751509 3.397709531257257
20 0.020800000019737253 2.4219972552023337
21 0.09300000011594518 3.242871333503238
22 0.00469999999789031 0.5379246460854297
23 0.08743930023230065 2.439280689400591
24 0.15199999972108216 3.1507524071300703

Bond Coeffs

1 434.0 1.01
2 337.0 1.449
3 340.0 1.09
4 310.0 1.526
5 340.0 1.09
6 310.0 1.526
7 340.0 1.09
8 310.0 1.526
9 340.0 1.09
10 317.0 1.522
11 656.0 1.25
12 310.0 1.526
13 490.0 1.335
14 570.0 1.229
15 310.0 1.526
16 310.0 1.526
17 340.0 1.09
18 310.0 1.526
19 340.0 1.09
20 367.0 1.471
21 434.0 1.01
22 310.0 1.526
23 317.0 1.522
24 656.0 1.25
25 317.0 1.51
26 469.0 1.4
27 367.0 1.08
28 469.0 1.409
29 450.0 1.364
30 553.0 0.96
31 317.0 1.504
32 410.0 1.394
33 488.0 1.335
34 367.0 1.08
35 477.0 1.343
36 434.0 1.01
37 518.0 1.371
38 427.0 1.381
39 367.0 1.08
40 340.0 1.09
41 337.0 1.463
42 434.0 1.01
43 481.0 1.34
44 310.0 1.526
45 317.0 1.522
46 337.0 1.449
47 340.0 1.09
48 310.0 1.526
49 340.0 1.09
50 320.0 1.41
51 340.0 1.09
52 227.0 1.81
53 227.0 1.81
54 237.0 1.81
55 274.0 1.336
56 317.0 1.495
57 546.0 1.352
58 428.0 1.38
59 469.0 1.4
60 388.0 1.459
61 447.0 1.419
62 469.0 1.404
63 320.0 1.41
64 422.0 1.385
65 367.0 1.471
66 340.0 1.09
67 512.0 1.375
68 410.0 1.394
69 367.0 1.08
70 649.5 1.219
71 563.5 0.973
72 375.9 1.097
73 293.4 1.423
74 392.2 1.088
75 255.6 1.51
76 391.4 1.088
77 460.5 1.346
78 306.1 1.457
79 232.5 1.538
80 284.8 1.432
81 355.7 1.371
82 553.0 0.9572
83 553.0 1.5136

Angle Coeffs

1 50.0 118.04005047448166
2 50.0 109.50004692903693
3 80.0 109.70004701475206
4 50.0 109.50004692903693
5 50.0 109.50004692903693
6 35.0 109.50004692903693
7 40.0 109.50004692903693
8 50.0 109.50004692903693
9 50.0 109.50004692903693
10 40.0 109.50004692903693
11 50.0 109.50004692903693
12 50.0 109.50004692903693
13 35.0 109.50004692903693
14 40.0 109.50004692903693
15 63.0 110.10004718618234
16 50.0 109.50004692903693
17 63.0 111.10004761475803
18 70.0 117.00005014335451
19 80.0 126.00005400053564
20 70.0 116.60004997192425
21 80.0 109.70004701475206
22 50.0 109.50004692903693
23 50.0 109.50004692903693
24 40.0 109.50004692903693
25 63.0 111.10004761475803
26 50.0 120.00005142908158
27 50.0 121.90005224337536
28 80.0 120.40005160051184
29 80.0 122.90005267195104
30 80.0 109.70004701475206
31 50.0 109.50004692903693
32 50.0 109.50004692903693
33 63.0 111.10004761475803
34 80.0 109.70004701475206
35 50.0 109.50004692903693
36 50.0 109.50004692903693
37 35.0 109.50004692903693
38 40.0 109.50004692903693
39 50.0 109.50004692903693
40 40.0 109.50004692903693
41 50.0 109.50004692903693
42 35.0 109.50004692903693
43 80.0 111.20004765761558
44 50.0 109.50004692903693
45 50.0 109.50004692903693
46 35.0 109.50004692903693
47 63.0 111.10004761475803
48 40.0 109.50004692903693
49 50.0 109.50004692903693
50 63.0 111.10004761475803
51 50.0 109.50004692903693
52 70.0 117.00005014335451
53 80.0 126.00005400053564
54 63.0 114.00004885762748
55 50.0 109.50004692903693
56 70.0 120.00005142908158
57 50.0 120.00005142908158
58 63.0 120.00005142908158
59 63.0 120.00005142908158
60 50.0 120.00005142908158
61 70.0 120.00005142908158
62 50.0 113.0000484290518
63 63.0 120.00005142908158
64 63.0 113.10004847190937
65 50.0 109.50004692903693
66 70.0 120.00005142908158
67 70.0 117.00005014335451
68 50.0 120.00005142908158
69 70.0 120.00005142908158
70 50.0 120.00005142908158
71 70.0 120.00005142908158
72 50.0 120.00005142908158
73 70.0 120.00005142908158
74 70.0 120.00005142908158
75 70.0 120.00005142908158
76 50.0 120.00005142908158
77 50.0 120.00005142908158
78 50.0 120.00005142908158
79 50.0 109.50004692903693
80 35.0 109.50004692903693
81 80.0 111.20004765761558
82 50.0 109.50004692903693
83 50.0 118.40005074336047
84 50.0 123.20005280052374
85 50.0 120.00005142908158
86 70.0 120.00005142908158
87 35.0 120.00005142908158
88 40.0 109.50004692903693
89 40.0 109.50004692903693
90 50.0 109.50004692903693
91 50.0 109.50004692903693
92 63.0 111.10004761475803
93 50.0 109.50004692903693
94 80.0 120.40005160051184
95 70.0 116.60004997192425
96 35.0 120.00005142908158
97 63.0 111.10004761475803
98 50.0 109.50004692903693
99 35.0 109.50004692903693
100 80.0 109.70004701475206
101 50.0 109.50004692903693
102 50.0 109.50004692903693
103 40.0 109.50004692903693
104 50.0 118.0000505719302
105 40.0 109.50004692903693
106 50.0 121.90005224337536
107 50.0 109.50004692903693
108 50.0 109.50004692903693
109 50.0 109.50004692903693
110 50.0 109.50004692903693
111 50.0 109.50004692903693
112 55.0 108.50004650046124
113 50.0 109.50004692903693
114 35.0 109.50004692903693
115 50.0 114.70004915763046
116 50.0 109.50004692903693
117 62.0 98.90004238613473
118 50.0 109.50004692903693
119 50.0 109.50004692903693
120 50.0 108.60004654331881
121 50.0 109.50004692903693
122 43.0 96.00004114326525
123 35.0 109.50004692903693
124 63.0 115.60004954334859
125 50.0 109.50004692903693
126 70.0 125.00005357195995
127 50.0 120.00005142908158
128 70.0 108.70004658617638
129 70.0 111.60004782904585
130 50.0 123.10005275766616
131 63.0 108.80004662903396
132 70.0 132.80005691485027
133 50.0 120.00005142908158
134 63.0 120.00005142908158
135 63.0 134.90005781485917
136 63.0 116.20004980049397
137 70.0 128.6000551148324
138 63.0 106.40004560045232
139 70.0 104.40004474330097
140 63.0 122.7000525862359
141 63.0 120.00005142908158
142 50.0 120.00005142908158
143 50.0 109.50004692903693
144 50.0 109.50004692903693
145 55.0 108.50004650046124
146 70.0 120.00005142908158
147 50.0 120.00005142908158
148 70.0 120.00005142908158
149 70.0 120.00005142908158
150 70.0 120.00005142908158
151 63.0 111.10004761475803
152 50.0 109.50004692903693
153 50.0 109.50004692903693
154 80.0 111.20004765761558
155 50.0 109.50004692903693
156 80.0 111.20004765761558
157 50.0 109.50004692903693
158 70.0 120.00005142908158
159 70.0 120.00005142908158
160 70.0 120.00005142908158
161 70.0 117.00005014335451
162 50.0 120.00005142908158
163 50.0 120.00005142908158
164 118.689 126.82005458115081
165 62.5 110.260047369346
166 49.0 107.26004608361897
167 46.4 115.68004934845152
168 47.6 109.96004724077329
169 85.5 110.35004757980516
170 50.1 119.94005128877545
171 65.4 122.11005216148891
172 50.0 120.45005190841951
173 66.1 123.15005306557386
174 47.7 116.65005027983193
175 67.5 123.26005294082985
176 89.488 123.42005312399351
177 65.5 111.56004792649439
178 46.9 109.56004706934303
179 84.6 110.19004739664149
180 62.4 109.780046819855
181 86.0 108.56004664076735
182 85.3 107.97004621602035
183 86.8 115.19004953951988
184 66.6 116.090049925238
185 37.7 116.90005010049695
186 88.0 123.70005301481159

Dihedral Coeffs

1 0.0 1 2
2 0.155555556 1 3
3 0.098 1 1
4 0.259 -1 2
5 0.144 1 3
6 0.073 1 4
7 0.16 1 3
8 0.15 1 3
9 0.379 1 1
10 0.027 -1 2
11 0.142 1 3
12 0.179 1 4
13 0.706 1 1
14 0.62 -1 2
15 0.19 1 4
16 0.45 -1 1
17 1.58 -1 2
18 0.55 -1 3
19 0.0 1 4
20 2.5 -1 2
21 0.2 1 1
22 0.2 1 2
23 0.4 1 3
24 0.337 1 1
25 0.216 -1 2
26 0.148 1 3
27 0.001 -1 4
28 0.406 -1 1
29 0.289 -1 2
30 0.112 1 4
31 2.0 1 1
32 1.8 1 2
33 0.8 1 3
34 0.0 1 1
35 0.27 1 2
36 0.42 1 3
37 0.8 1 1
38 0.08 -1 3
39 0.2 -1 1
40 0.25 -1 2
41 0.18 1 3
42 0.1 -1 1
43 0.184 -1 2
44 0.078 1 4
45 1.367 -1 1
46 0.222 -1 2
47 0.608 -1 3
48 0.056 -1 4
49 0.39 -1 2
50 0.064 1 4
51 0.421 -1 1
52 0.393 -1 2
53 0.145 1 4
54 0.012 -1 1
55 0.29 -1 2
56 0.192 1 3
57 0.007 -1 4
58 0.069 -1 2
59 0.0 1 3
60 0.048 -1 4
61 3.625 -1 2
62 0.883 -1 2
63 0.065 1 4
64 0.055 1 1
65 0.469 -1 2
66 0.012 -1 4
67 0.306 -1 1
68 0.221 -1 2
69 0.219 1 3
70 0.089 1 4
71 0.69 1 1
72 0.204 1 2
73 0.74 1 3
74 0.047 -1 4
75 2.4 -1 2
76 1.5 -1 2
77 5.0 -1 2
78 5.375 -1 2
79 2.325 -1 2
80 0.143 -1 1
81 0.244 -1 2
82 0.025 1 4
83 0.31 1 1
84 0.144 -1 2
85 0.113 1 3
86 0.097 -1 4
87 0.447 1 1
88 0.053 1 2
89 0.107 1 3
90 0.23 1 4
91 0.202 1 1
92 0.077 -1 2
93 0.224 1 4
94 0.162 1 1
95 0.735 -1 2
96 0.115 1 4
97 0.196 -1 1
98 0.083 1 2
99 0.412 -1 3
100 0.138 1 4
101 0.609 -1 1
102 0.845 -1 2
103 0.085 -1 3
104 0.042 1 4
105 2.154 -1 1
106 0.647 -1 2
107 0.058 1 3
108 0.769 -1 2
109 0.031 -1 4
110 0.424 1 1
111 0.459 -1 2
112 0.154 1 4
113 2.0 1 2
114 0.674 1 1
115 0.006 1 2
116 0.315 1 3
117 0.095 1 4
118 0.25 1 1
119 0.006 -1 1
120 0.251 1 2
121 0.236 1 3
122 0.013 1 4
123 0.166666667 1 3
124 0.643 1 1
125 0.079 -1 2
126 0.048 1 4
127 0.697 -1 1
128 0.119 -1 2
129 0.156 1 4
130 0.417 1 1
131 0.245 1 2
132 0.016 1 3
133 0.028 1 4
134 0.247 -1 1
135 0.442 1 2
136 0.414 1 3
137 0.057 1 4
138 0.333333333 1 3
139 0.154 1 1
140 0.486 -1 2
141 0.251 1 3
142 0.033 1 4
143 0.092 1 1
144 0.612 1 2
145 0.252 1 3
146 0.03 1 4
147 0.25 1 3
148 0.269 -1 1
149 0.337 -1 2
150 0.075 1 4
151 0.079 1 1
152 0.313 -1 2
153 0.234 1 3
154 0.031 1 4
155 6.525 -1 2
156 3.0 -1 2
157 1.675 -1 2
158 1.525 -1 2
159 3.5 -1 2
160 0.365 1 1
161 0.408 1 2
162 0.819 1 3
163 0.095 -1 4
164 0.017 -1 1
165 0.353 -1 2
166 0.074 1 4
167 0.666 1 1
168 0.246 -1 2
169 0.401 1 3
170 0.16 1 4
171 0.211 1 1
172 0.444 1 2
173 0.267 1 3
174 0.007 1 4
175 0.661 -1 1
176 0.218 -1 2
177 0.129 1 4
178 0.16 -1 1
179 0.392 -1 2
180 0.686 1 3
181 0.037 -1 4
182 1.4 -1 2
183 0.688 -1 1
184 0.297 -1 2
185 0.033 1 3
186 0.059 1 4
187 0.828 -1 1
188 0.485 -1 2
189 0.301 -1 3
190 0.008 1 4
191 1.046 1 1
192 0.303 -1 2
193 0.107 1 4
194 5.15 -1 2
195 0.674 -1 1
196 0.75 1 2
197 0.122 -1 3
198 0.01 -1 4
199 1.0 -1 2
200 6.65 -1 2
201 0.5 -1 2
202 0.02 -1 1
203 1.01 1 3
204 2.0 -1 1
205 2.52 -1 2
206 0.383333333 1 3
207 1.1 -1 2
208 10.5 -1 2
209 1.0 -1 2
210 0.0 -1 2

Atoms

1 0 1 0.1592 5.112 6.906 -13.775
2 0 2 0.1984 5.419 6.559 -14.701
3 0 2 0.1984 5.875 7.517 -13.378
4 0 2 0.1984 4.228 7.394 -13.95
5 0 3 0.0221 4.852 5.783 -12.894
6 0 4 0.11159999999999999 4.321 5.192 -13.617
7 0 3 0.0865 6.163 5.043 -12.577
8 0 5 0.012499999999999999 6.995 5.749 -12.263
9 0 5 0.012499999999999999 6.343 4.593 -13.582
10 0 3 0.0334 6.036 3.829 -11.614
11 0 6 0.0292 5.449 3.052 -12.126
12 0 6 0.0292 5.571 4.163 -10.657
13 0 7 -0.27740000000000004 7.546 3.08 -11.326
14 0 3 -0.0341 7.174 2.391 -9.714
15 0 6 0.059699999999999996 6.352 1.748 -9.808
16 0 6 0.059699999999999996 7.039 3.189 -8.945
17 0 6 0.059699999999999996 8.02 1.732 -9.479
18 0 8 0.6123000005487782 4.061 6.264 -11.635
19 0 9 -0.571300000548778 4.324 7.386 -11.124
20 0 1 -0.4157 3.154 5.486 -11.1
21 0 2 0.27190000000000003 2.816 4.603 -11.537
22 0 3 -0.059699999999999996 2.61 5.71 -9.739
23 0 6 0.0869 2.22 6.652 -9.676
24 0 3 0.1303 1.465 4.716 -9.454
25 0 5 0.0187 1.791 3.726 -9.748
26 0 3 -0.32039999999999996 0.997 4.741 -8.057
27 0 5 0.0882 0.128 4.165 -7.835
28 0 5 0.0882 1.709 4.369 -7.338
29 0 5 0.0882 0.709 5.759 -7.744
30 0 3 -0.043 0.325 5.039 -10.491
31 0 5 0.0236 0.337 6.119 -10.838
32 0 5 0.0236 -0.614 5.117 -9.964
33 0 3 -0.066 -0.017 4.151 -11.719
34 0 5 0.0186 0.842 4.186 -12.434
35 0 5 0.0186 -0.41 3.194 -11.518
36 0 5 0.0186 -0.788 4.731 -12.231
37 0 8 0.5973000005487781 3.774 5.688 -8.671
38 0 9 -0.5679000016463344 4.522 4.775 -8.676
39 0 1 -0.3479 3.796 6.646 -7.759
40 0 2 0.2747 2.949 7.149 -7.674
41 0 3 -0.2637 4.856 6.944 -6.777
42 0 6 0.156 5.434 6.087 -6.598
43 0 3 -0.0007 5.678 8.154 -7.335
44 0 5 0.0327 6.376 8.485 -6.543
45 0 5 0.0327 5.097 9.055 -7.684
46 0 3 0.039 6.537 7.79 -8.542
47 0 5 0.028499999999999998 7.017 8.711 -8.946
48 0 5 0.028499999999999998 5.857 7.47 -9.34
49 0 3 0.0486 7.519 6.64 -8.247
50 0 6 0.0687 7.013 5.712 -8.041
51 0 6 0.0687 8.326 6.994 -7.522
52 0 1 -0.5295 8.351 6.367 -9.413
53 0 2 0.3456 8.215 6.942 -10.186
54 0 8 0.8076000010975563 9.259 5.316 -9.555
55 0 1 -0.8626999994512219 9.498 4.471 -8.407
56 0 2 0.4478 10.099 3.607 -8.548
57 0 2 0.4478 9.14 4.567 -7.489
58 0 1 -0.8626999994512219 9.961 5.143 -10.698
59 0 2 0.4478 10.412 4.248 -11.059
60 0 2 0.4478 9.801 5.796 -11.487
61 0 8 0.7340999983536656 4.117 7.459 -5.556
62 0 9 -0.5893999989024437 3.009 7.941 -5.617
63 0 1 -0.4157 4.841 7.391 -4.434
64 0 2 0.27190000000000003 5.732 6.886 -4.395
65 0 3 -0.0252 4.603 8.149 -3.233
66 0 6 0.0698 5.201 7.747 -2.427
67 0 6 0.0698 3.516 8.168 -2.939
68 0 8 0.5973000005487781 5.149 9.552 -3.531
69 0 9 -0.5679000016463344 6.106 9.807 -4.309
70 0 1 -0.4157 4.715 10.424 -2.588
71 0 2 0.27190000000000003 4.003 10.088 -1.97
72 0 3 -0.059699999999999996 5.343 11.747 -2.345
73 0 6 0.0869 6.247 11.836 -2.959
74 0 3 0.1303 4.377 12.91 -2.704
75 0 5 0.0187 3.429 12.558 -2.443
76 0 3 -0.32039999999999996 4.712 14.23 -1.913
77 0 5 0.0882 5.738 14.561 -2.081
78 0 5 0.0882 3.961 15.029 -2.181
79 0 5 0.0882 4.54 14.04 -0.845
80 0 3 -0.043 4.412 13.245 -4.211
81 0 5 0.0236 4.14 12.243 -4.688
82 0 5 0.0236 5.401 13.404 -4.609
83 0 3 -0.066 3.445 14.302 -4.665
84 0 5 0.0186 2.439 14.219 -4.191
85 0 5 0.0186 3.758 15.333 -4.508
86 0 5 0.0186 3.291 14.188 -5.701
87 0 8 0.5973000005487781 5.697 11.567 -0.871
88 0 9 -0.5679000016463344 5.039 10.797 -0.114
89 0 1 -0.3479 6.77 12.256 -0.456
90 0 2 0.2747 6.958 13.121 -0.953
91 0 3 -0.2637 7.22 12.402 0.911
92 0 6 0.156 6.432 11.935 1.504
93 0 3 -0.0007 8.479 11.615 1.157
94 0 5 0.0327 8.993 11.941 2.045
95 0 5 0.0327 9.234 11.848 0.39
96 0 3 0.039 8.271 10.071 1.233
97 0 5 0.028499999999999998 9.154 9.473 1.183
98 0 5 0.028499999999999998 7.619 9.775 0.41
99 0 3 0.0486 7.591 9.643 2.584
100 0 6 0.0687 8.005 8.627 2.714
101 0 6 0.0687 6.493 9.55 2.374
102 0 1 -0.5295 7.674 10.496 3.814
103 0 2 0.3456 6.805 10.976 4.009
104 0 8 0.8076000010975563 8.743 10.724 4.69
105 0 1 -0.8626999994512219 9.899 9.991 4.451
106 0 2 0.4478 10.845 10.097 4.96
107 0 2 0.4478 9.93 9.158 3.839
108 0 1 -0.8626999994512219 8.724 11.739 5.623
109 0 2 0.4478 9.555 12.023 6.047
110 0 2 0.4478 7.855 12.273 5.768
111 0 8 0.7340999983536656 7.373 13.92 1.292
112 0 9 -0.5893999989024437 7.799 14.639 0.407
113 0 1 -0.4157 6.997 14.274 2.532
114 0 2 0.27190000000000003 6.751 13.625 3.264
115 0 3 -0.0252 7.257 15.604 3.136
116 0 6 0.0698 6.533 16.39 2.793
117 0 6 0.0698 8.25 15.846 2.807
118 0 8 0.5973000005487781 7.198 15.396 4.689
119 0 9 -0.5679000016463344 6.875 14.276 5.137
120 0 1 -0.4157 7.684 16.337 5.485
121 0 2 0.27190000000000003 8.082 17.207 5.127
122 0 3 0.033699999999999994 7.6 16.351 6.965
123 0 6 0.0823 6.667 15.829 7.254
124 0 3 -0.1825 8.691 15.592 7.724
125 0 5 0.06029999999999999 9.62 16.133 8.004
126 0 5 0.06029999999999999 8.256 15.25 8.721
127 0 5 0.06029999999999999 8.865 14.731 7.096
128 0 8 0.5973000005487781 7.536 17.813 7.416
129 0 9 -0.5679000016463344 7.897 18.712 6.66
130 0 1 -0.4157 6.969 18.036 8.628
131 0 2 0.27190000000000003 6.68 17.285 9.29
132 0 3 -0.038900000000000004 7.142 19.32 9.258
133 0 6 0.1007 8.175 19.604 9.02
134 0 3 0.3654 6.165 20.286 8.642
135 0 6 0.0043 6.25 20.112 7.591
136 0 3 -0.2438 4.641 20.305 8.947
137 0 5 0.06420000000000001 4.341 20.416 9.948
138 0 5 0.06420000000000001 4.137 21.001 8.279
139 0 5 0.06420000000000001 4.292 19.282 8.59
140 0 10 -0.6760999983536655 6.676 21.644 8.831
141 0 11 0.4102 7.604 21.691 8.444
142 0 8 0.5973000005487781 6.95 19.081 10.843
143 0 9 -0.5679000016463344 6.718 18.009 11.278
144 0 1 -0.4157 7.323 20.088 11.706
145 0 2 0.27190000000000003 7.451 21.041 11.357
146 0 3 -0.038900000000000004 7.157 20.116 13.156
147 0 6 0.1007 6.789 19.133 13.49
148 0 3 0.3654 8.636 20.292 13.731
149 0 6 0.0043 8.392 20.43 14.773
150 0 3 -0.2438 9.5 19.041 13.447
151 0 5 0.06420000000000001 9.759 18.909 12.396
152 0 5 0.06420000000000001 10.457 19.006 14.057
153 0 5 0.06420000000000001 8.936 18.095 13.703
154 0 10 -0.6760999983536655 9.272 21.473 13.221
155 0 11 0.4102 8.766 22.269 13.358
156 0 8 0.5973000005487781 6.102 21.2 13.522
157 0 9 -0.5679000016463344 5.987 22.213 12.818
158 0 1 -0.4157 5.199 20.907 14.495
159 0 2 0.27190000000000003 5.32 20.026 15.018
160 0 3 -0.08750000000000001 4.471 21.927 15.165
161 0 6 0.09689999999999999 4.394 22.795 14.527
162 0 3 0.2985 2.977 21.419 15.302
163 0 5 -0.029699999999999997 2.491 22.196 15.823
164 0 3 -0.3192 2.19 21.289 14.015
165 0 5 0.07909999999999999 1.132 20.983 14.214
166 0 5 0.07909999999999999 2.177 22.236 13.488
167 0 5 0.07909999999999999 2.615 20.507 13.458
168 0 3 -0.3192 2.804 20.12 16.105
169 0 5 0.07909999999999999 1.728 19.945 16.292
170 0 5 0.07909999999999999 3.19 19.217 15.624
171 0 5 0.07909999999999999 3.25 20.338 17.016
172 0 8 0.5973000005487781 5.212 22.342 16.41
173 0 9 -0.5679000016463344 6.151 21.592 16.785
174 0 1 -0.5163 4.959 23.488 16.949
175 0 2 0.2936 4.253 24.079 16.594
176 0 3 0.0397 5.611 23.959 18.148
177 0 6 0.1105 6.551 23.492 18.012
178 0 3 0.056 5.879 25.477 18.151
179 0 5 -0.0173 4.792 25.791 18.216
180 0 5 -0.0173 6.341 25.69 17.169
181 0 3 0.0136 6.673 26.05 19.313
182 0 5 -0.042499999999999996 6.298 25.675 20.286
183 0 5 -0.042499999999999996 6.402 27.094 19.416
184 0 8 0.8053999989024436 8.159 25.882 19.211
185 0 9 -0.8187999978048873 8.697 26.5 18.245
186 0 9 -0.8187999978048873 8.805 25.343 20.124
187 0 8 0.5366000000000001 4.935 23.427 19.365
188 0 9 -0.5819000016463345 5.661 23.105 20.295
189 0 1 -0.3479 3.566 23.435 19.482
190 0 2 0.2747 3.003 23.626 18.657
191 0 3 -0.2637 2.787 22.897 20.586
192 0 6 0.156 3.515 22.413 21.192
193 0 3 -0.0007 2.207 24.03 21.418
194 0 5 0.0327 1.551 23.631 22.232
195 0 5 0.0327 1.575 24.585 20.731
196 0 3 0.039 3.283 24.894 22.102
197 0 5 0.028499999999999998 3.477 25.683 21.373
198 0 5 0.028499999999999998 4.082 24.299 22.467
199 0 3 0.0486 2.686 25.753 23.236
200 0 6 0.0687 3.392 26.41 23.522
201 0 6 0.0687 2.439 25.067 24.123
202 0 1 -0.5295 1.556 26.512 22.815
203 0 2 0.3456 0.718 26.074 23.007
204 0 8 0.8076000010975563 1.43 27.751 22.301
205 0 1 -0.8626999994512219 2.575 28.482 22.137
206 0 2 0.4478 3.532 28.151 22.319
207 0 2 0.4478 2.578 29.46 21.879
208 0 1 -0.8626999994512219 0.233 28.281 22.14
209 0 2 0.4478 0.071 29.211 21.709
210 0 2 0.4478 -0.63 27.716 22.127
211 0 8 0.7340999983536656 1.75 21.931 19.98
212 0 9 -0.5893999989024437 1.302 22.217 18.822
213 0 1 -0.5163 1.313 20.842 20.643
214 0 2 0.2936 1.837 20.515 21.409
215 0 3 0.038099999999999995 0.083 20.061 20.365
216 0 6 0.088 0.059 19.855 19.282
217 0 3 -0.030299999999999997 -0.079 18.743 21.098
218 0 5 -0.0122 0.048 18.836 22.187
219 0 5 -0.0122 0.692 18.021 20.831
220 0 8 0.7993999989024436 -1.46 18.138 20.74
221 0 9 -0.8013999989024437 -1.725 17.677 19.613
222 0 9 -0.8013999989024437 -2.317 18.061 21.672
223 0 8 0.5366000000000001 -1.025 21.085 20.735
224 0 9 -0.5819000016463345 -1.307 21.386 21.875
225 0 1 -0.4157 -1.599 21.644 19.648
226 0 2 0.27190000000000003 -1.271 21.361 18.713
227 0 3 -0.038900000000000004 -2.602 22.606 19.68
228 0 6 0.1007 -3.343 22.335 20.457
229 0 3 0.3654 -2.021 24.014 20.06
230 0 6 0.0043 -2.676 24.812 19.705
231 0 3 -0.2438 -1.657 24.312 21.586
232 0 5 0.06420000000000001 -1.755 25.349 21.626
233 0 5 0.06420000000000001 -2.387 23.81 22.152
234 0 5 0.06420000000000001 -0.638 24.015 21.851
235 0 10 -0.6760999983536655 -0.795 24.318 19.372
236 0 11 0.4102 -0.895 24.059 18.447
237 0 8 0.5973000005487781 -3.335 22.41 18.363
238 0 9 -0.5679000016463344 -2.697 22.426 17.308
239 0 1 -0.5163 -4.669 22.348 18.406
240 0 2 0.2936 -5.053 22.518 19.369
241 0 3 0.0397 -5.54 22.158 17.26
242 0 6 0.1105 -5.438 21.101 16.973
243 0 3 0.056 -6.962 22.415 17.688
244 0 5 -0.0173 -7.137 23.36 18.168
245 0 5 -0.0173 -7.199 21.612 18.435
246 0 3 0.0136 -7.946 22.16 16.494
247 0 5 -0.042499999999999996 -8.549 21.313 16.8
248 0 5 -0.042499999999999996 -7.545 21.757 15.581
249 0 8 0.8053999989024436 -8.914 23.347 16.206
250 0 9 -0.8187999978048873 -8.892 24.401 16.897
251 0 9 -0.8187999978048873 -9.741 23.168 15.32
252 0 8 0.5366000000000001 -5.177 23.106 16.126
253 0 9 -0.5819000016463345 -5.173 22.544 15.008
254 0 1 -0.5163 -4.986 24.405 16.414
255 0 2 0.2936 -5.046 24.696 17.392
256 0 3 0.0397 -4.897 25.443 15.389
257 0 6 0.1105 -5.734 25.387 14.722
258 0 3 0.056 -4.9 26.766 16.08
259 0 5 -0.0173 -4.192 26.755 16.973
260 0 5 -0.0173 -5.961 26.904 16.335
261 0 3 0.0136 -4.639 28.003 15.163
262 0 5 -0.042499999999999996 -5.374 28.175 14.409
263 0 5 -0.042499999999999996 -3.696 27.829 14.544
264 0 8 0.8053999989024436 -4.525 29.251 15.875
265 0 9 -0.8187999978048873 -3.521 29.508 16.611
266 0 9 -0.8187999978048873 -5.429 30.073 15.862
267 0 8 0.5366000000000001 -3.635 25.093 14.627
268 0 9 -0.5819000016463345 -3.719 25.189 13.373
269 0 1 -0.5163 -2.523 24.698 15.271
270 0 2 0.2936 -2.583 24.478 16.241
271 0 3 0.0397 -1.261 24.45 14.617
272 0 6 0.1105 -1.073 25.166 13.94
273 0 3 0.056 -0.196 24.589 15.731
274 0 5 -0.0173 0.062 23.622 16.215
275 0 5 -0.0173 -0.548 25.253 16.509
276 0 3 0.0136 1.146 25.068 15.111
277 0 5 -0.042499999999999996 0.879 25.853 14.433
278 0 5 -0.042499999999999996 1.427 24.297 14.407
279 0 8 0.8053999989024436 2.418 25.282 15.935
280 0 9 -0.8187999978048873 2.45 25.238 17.197
281 0 9 -0.8187999978048873 3.446 25.545 15.245
282 0 8 0.5366000000000001 -1.251 23.05 13.953
283 0 9 -0.5819000016463345 -0.671 23.119 12.91
284 0 1 -0.4157 -1.823 21.939 14.463
285 0 2 0.27190000000000003 -2.459 22.047 15.288
286 0 3 -0.059699999999999996 -1.952 20.66 13.713
287 0 6 0.0869 -0.904 20.297 13.571
288 0 3 0.1303 -2.82 19.677 14.455
289 0 5 0.0187 -3.711 20.131 14.785
290 0 3 -0.32039999999999996 -3.198 18.405 13.55
291 0 5 0.0882 -3.771 18.63 12.668
292 0 5 0.0882 -2.389 17.728 13.284
293 0 5 0.0882 -3.935 17.862 14.148
294 0 3 -0.043 -2.137 19.111 15.793
295 0 5 0.0236 -2.83 18.598 16.465
296 0 5 0.0236 -1.514 19.883 16.311
297 0 3 -0.066 -0.974 18.153 15.544
298 0 5 0.0186 -0.469 17.995 16.472
299 0 5 0.0186 -1.474 17.264 15.22
300 0 5 0.0186 -0.259 18.599 14.862
301 0 8 0.5973000005487781 -2.568 21.118 12.357
302 0 9 -0.5679000016463344 -2.037 20.659 11.358
303 0 1 -0.4157 -3.694 21.898 12.361
304 0 2 0.27190000000000003 -4.048 22.226 13.236
305 0 3 -0.0518 -4.398 22.159 11.082
306 0 6 0.09219999999999999 -4.533 21.182 10.736
307 0 3 -0.1102 -5.708 22.955 11.177
308 0 5 0.0457 -6.041 23.152 10.14
309 0 5 0.0457 -5.595 23.908 11.751
310 0 3 0.35309999999999997 -6.894 22.141 11.828
311 0 5 -0.0361 -6.61 21.588 12.685
312 0 3 -0.41209999999999997 -8.135 22.922 12.231
313 0 5 0.09999999999999999 -8.658 23.32 11.325
314 0 5 0.09999999999999999 -8.909 22.268 12.709
315 0 5 0.09999999999999999 -7.861 23.602 13.05
316 0 3 -0.41209999999999997 -7.362 20.938 10.986
317 0 5 0.09999999999999999 -8.134 20.36 11.411
318 0 5 0.09999999999999999 -7.718 21.325 9.99
319 0 5 0.09999999999999999 -6.569 20.229 10.806
320 0 8 0.5973000005487781 -3.439 22.913 10.218
321 0 9 -0.5679000016463344 -3.294 22.46 9.052
322 0 1 -0.4157 -2.767 23.964 10.749
323 0 2 0.27190000000000003 -2.957 24.037 11.713
324 0 3 -0.0031 -1.989 25.016 10.1
325 0 6 0.08499999999999999 -2.674 25.447 9.31
326 0 3 -0.0036 -1.653 26.163 11.106
327 0 5 0.0171 -1.014 25.67 11.819
328 0 5 0.0171 -2.581 26.361 11.645
329 0 3 -0.0645 -1.013 27.49 10.645
330 0 5 0.0352 -1.667 28.3 10.413
331 0 5 0.0352 -0.268 27.241 9.834
332 0 8 0.6950999983536655 -0.21 27.987 11.854
333 0 9 -0.6086000010975563 1.061 27.834 11.808
334 0 1 -0.9406999994512218 -0.788 28.607 12.869
335 0 2 0.4251 -0.356 28.841 13.751
336 0 2 0.4251 -1.704 28.973 12.851
337 0 8 0.5973000005487781 -0.796 24.421 9.382
338 0 9 -0.5679000016463344 -0.682 24.675 8.165
339 0 1 -0.3479 0.022 23.638 10.057
340 0 2 0.2747 -0.159 23.41 11.024
341 0 3 -0.23999999999999996 1.304 23.211 9.453
342 0 6 0.1426 1.633 24.088 9.083
343 0 3 -0.0094 2.406 22.787 10.44
344 0 5 0.036199999999999996 3.265 22.404 9.888
345 0 5 0.036199999999999996 2.011 22.023 11.088
346 0 3 0.0187 2.935 23.921 11.377
347 0 5 0.010299999999999998 3.469 23.372 12.245
348 0 5 0.010299999999999998 2.013 24.451 11.736
349 0 3 -0.0479 3.887 24.978 10.811
350 0 5 0.062099999999999995 3.407 25.562 10.045
351 0 5 0.062099999999999995 4.8 24.517 10.528
352 0 3 -0.0143 4.353 25.922 11.876
353 0 4 0.1135 4.856 26.771 11.497
354 0 4 0.1135 4.868 25.329 12.607
355 0 1 -0.38539999999999996 3.317 26.564 12.68
356 0 2 0.33999999999999997 3.749 26.947 13.548
357 0 2 0.33999999999999997 2.749 27.296 12.195
358 0 2 0.33999999999999997 2.672 25.885 13.116
359 0 8 0.7340999983536656 1.185 22.184 8.317
360 0 9 -0.5893999989024437 1.831 22.313 7.325
361 0 1 -0.4157 0.295 21.22 8.56
362 0 2 0.27190000000000003 -0.192 21.171 9.46
363 0 3 -0.038900000000000004 -0.201 20.272 7.516
364 0 6 0.1007 0.63 19.559 7.314
365 0 3 0.3654 -1.361 19.478 8.18
366 0 6 0.0043 -2.197 20.184 8.317
367 0 3 -0.2438 -1.967 18.276 7.385
368 0 5 0.06420000000000001 -2.633 17.659 8.026
369 0 5 0.06420000000000001 -2.453 18.684 6.487
370 0 5 0.06420000000000001 -1.181 17.669 7.18
371 0 10 -0.6760999983536655 -0.939 19.014 9.521
372 0 11 0.4102 -1.446 19.6 10.141
373 0 8 0.5973000005487781 -0.552 21.077 6.265
374 0 9 -0.5679000016463344 -0.05 20.687 5.152
375 0 1 -0.3479 -1.427 22.122 6.379
376 0 2 0.2747 -1.788 22.398 7.281
377 0 3 -0.23999999999999996 -1.939 22.875 5.255
378 0 6 0.1426 -2.424 22.256 4.527
379 0 3 -0.0094 -3.065 23.835 5.692
380 0 5 0.036199999999999996 -2.635 24.558 6.497
381 0 5 0.036199999999999996 -3.802 23.215 6.185
382 0 3 0.0187 -3.838 24.425 4.551
383 0 5 0.010299999999999998 -4.194 23.599 3.947
384 0 5 0.010299999999999998 -3.146 24.969 3.938
385 0 3 -0.0479 -5.077 25.195 4.95
386 0 5 0.062099999999999995 -4.929 25.854 5.802
387 0 5 0.062099999999999995 -5.799 24.529 5.4
388 0 3 -0.0143 -5.74 25.991 3.843
389 0 4 0.1135 -6.649 26.415 4.089
390 0 4 0.1135 -6.003 25.298 3.046
391 0 1 -0.38539999999999996 -4.997 27.103 3.36
392 0 2 0.33999999999999997 -4.054 26.912 3.016
393 0 2 0.33999999999999997 -5.526 27.652 2.664
394 0 2 0.33999999999999997 -4.888 27.704 4.182
395 0 8 0.7340999983536656 -0.743 23.54 4.589
396 0 9 -0.5893999989024437 -0.727 23.487 3.361
397 0 1 -0.4157 0.192 24.191 5.275
398 0 2 0.27190000000000003 0.1 24.268 6.295
399 0 3 -0.0031 1.164 24.96 4.611
400 0 6 0.08499999999999999 0.762 25.531 3.822
401 0 3 -0.0036 1.944 25.801 5.669
402 0 5 0.0171 2.908 26.291 5.354
403 0 5 0.0171 2.128 25.082 6.436
404 0 3 -0.0645 1.189 26.986 6.226
405 0 5 0.0352 0.089 26.784 6.359
406 0 5 0.0352 1.108 27.839 5.555
407 0 8 0.6950999983536655 1.773 27.474 7.536
408 0 9 -0.6086000010975563 2.875 27.187 7.977
409 0 1 -0.9406999994512218 1.072 28.406 8.133
410 0 2 0.4251 0.172 28.592 7.751
411 0 2 0.4251 1.339 28.956 8.93
412 0 8 0.5973000005487781 2.146 23.951 3.867
413 0 9 -0.5679000016463344 2.708 24.296 2.826
414 0 1 -0.4157 2.413 22.793 4.505
415 0 2 0.27190000000000003 2.0 22.551 5.381
416 0 3 -0.0518 3.229 21.761 3.971
417 0 6 0.09219999999999999 4.107 22.335 3.827
418 0 3 -0.1102 3.388 20.65 5.04
419 0 5 0.0457 2.453 20.36 5.473
420 0 5 0.0457 4.044 21.05 5.869
421 0 3 0.35309999999999997 4.144 19.435 4.469
422 0 5 -0.0361 3.575 19.066 3.665
423 0 3 -0.41209999999999997 5.553 19.68 4.007
424 0 5 0.09999999999999999 5.417 20.203 3.028
425 0 5 0.09999999999999999 6.102 20.307 4.759
426 0 5 0.09999999999999999 6.145 18.771 3.896
427 0 3 -0.41209999999999997 4.307 18.435 5.658
428 0 5 0.09999999999999999 3.394 17.993 6.008
429 0 5 0.09999999999999999 4.91 17.54 5.44
430 0 5 0.09999999999999999 4.733 18.89 6.529
431 0 8 0.5973000005487781 2.588 21.271 2.65
432 0 9 -0.5679000016463344 3.325 21.245 1.651
433 0 1 -0.4157 1.275 20.985 2.63
434 0 2 0.27190000000000003 0.804 21.132 3.554
435 0 3 -0.0518 0.446 20.671 1.462
436 0 6 0.09219999999999999 0.891 19.693 1.07
437 0 3 -0.1102 -1.063 20.435 1.82
438 0 5 0.0457 -1.739 20.643 0.925
439 0 5 0.0457 -1.432 21.138 2.573
440 0 3 0.35309999999999997 -1.341 18.953 2.353
441 0 5 -0.0361 -0.667 18.89 3.142
442 0 3 -0.41209999999999997 -2.685 18.942 3.061
443 0 5 0.09999999999999999 -2.516 19.402 4.041
444 0 5 0.09999999999999999 -3.557 19.508 2.59
445 0 5 0.09999999999999999 -2.984 17.898 3.176
446 0 3 -0.41209999999999997 -1.093 17.823 1.272
447 0 5 0.09999999999999999 -0.928 16.855 1.853
448 0 5 0.09999999999999999 -1.832 17.795 0.507
449 0 5 0.09999999999999999 -0.033 18.001 0.855
450 0 8 0.5973000005487781 0.658 21.743 0.424
451 0 9 -0.5679000016463344 0.95 21.467 -0.758
452 0 1 -0.5163 0.626 22.974 0.807
453 0 2 0.2936 0.486 23.2 1.804
454 0 3 0.0397 0.603 24.096 -0.157
455 0 6 0.1105 -0.115 23.804 -0.923
456 0 3 0.056 0.104 25.393 0.558
457 0 5 -0.0173 0.591 26.249 0.121
458 0 5 -0.0173 0.365 25.486 1.594
459 0 3 0.0136 -1.423 25.572 0.514
460 0 5 -0.042499999999999996 -1.895 24.831 1.173
461 0 5 -0.042499999999999996 -1.759 25.477 -0.491
462 0 8 0.8053999989024436 -1.917 26.91 1.114
463 0 9 -0.8187999978048873 -1.093 27.82 1.204
464 0 9 -0.8187999978048873 -3.131 26.982 1.505
465 0 8 0.5366000000000001 1.969 24.264 -0.842
466 0 9 -0.5819000016463345 2.091 24.548 -2.035
467 0 1 -0.3479 3.077 24.096 -0.125
468 0 2 0.2747 2.84 23.765 0.798
469 0 3 -0.23999999999999996 4.388 23.941 -0.706
470 0 6 0.1426 4.474 24.843 -1.229
471 0 3 -0.0094 5.426 23.953 0.404
472 0 5 0.036199999999999996 5.93 22.961 0.454
473 0 5 0.036199999999999996 4.927 24.073 1.407
474 0 3 0.0187 6.434 25.111 0.337