Loading orca/5.0.3
  Loading requirement: gcc-runtime/11.3.1-gcc-11.3.1-jw6fhud
    numactl/2.0.14-gcc-11.3.1-tqvsbcd openssh/8.7p1-gcc-11.3.1-ddo4kmk
    libiconv/1.17-gcc-11.3.1-h3jdn2x xz/5.4.1-gcc-11.3.1-y32p7p3
    zlib/1.2.13-gcc-11.3.1-dwcx77k libxml2/2.10.3-gcc-11.3.1-m4mk5ab
    cuda/11.8.0-gcc-11.3.1-i5witig libpciaccess/0.17-gcc-11.3.1-qksiqer
    ncurses/6.4-gcc-11.3.1-afnu276 hwloc/2.9.1-gcc-11.3.1-qedjm66
    openssl/3.1.2-gcc-11.3.1-mgoa6lt libevent/2.1.12-gcc-11.3.1-bpr3m74
    pmix/4.2.2-gcc-11.3.1-du4y5e7 slurm/22.05.6-gcc-11.3.1-atym2np
    libnl/3.3.0-gcc-11.3.1-gh3muw7 rdma-core/41.0-gcc-11.3.1-isp54jw
    ucx/1.14.1-gcc-11.3.1-o3wj4kz openmpi/4.1.2-gcc-11.3.1-fs7u3kb

                                 *****************
                                 * O   R   C   A *
                                 *****************

                                            #,                                       
                                            ###                                      
                                            ####                                     
                                            #####                                    
                                            ######                                   
                                           ########,                                 
                                     ,,################,,,,,                         
                               ,,#################################,,                 
                          ,,##########################################,,             
                       ,#########################################, ''#####,          
                    ,#############################################,,   '####,        
                  ,##################################################,,,,####,       
                ,###########''''           ''''###############################       
              ,#####''   ,,,,##########,,,,          '''####'''          '####       
            ,##' ,,,,###########################,,,                        '##       
           ' ,,###''''                  '''############,,,                           
         ,,##''                                '''############,,,,        ,,,,,,###''
      ,#''                                            '''#######################'''  
     '                                                          ''''####''''         
             ,#######,   #######,   ,#######,      ##                                
            ,#'     '#,  ##    ##  ,#'     '#,    #''#        ######   ,####,        
            ##       ##  ##   ,#'  ##            #'  '#       #        #'  '#        
            ##       ##  #######   ##           ,######,      #####,   #    #        
            '#,     ,#'  ##    ##  '#,     ,#' ,#      #,         ##   #,  ,#        
             '#######'   ##     ##  '#######'  #'      '#     #####' # '####'        



                  #######################################################
                  #                        -***-                        #
                  #          Department of theory and spectroscopy      #
                  #    Directorship and core code : Frank Neese         #
                  #        Max Planck Institute fuer Kohlenforschung    #
                  #                Kaiser Wilhelm Platz 1               #
                  #                 D-45470 Muelheim/Ruhr               #
                  #                      Germany                        #
                  #                                                     #
                  #                  All rights reserved                #
                  #                        -***-                        #
                  #######################################################


                         Program Version 5.0.3 -  RELEASE  -


 With contributions from (in alphabetic order):
   Daniel Aravena         : Magnetic Suceptibility
   Michael Atanasov       : Ab Initio Ligand Field Theory (pilot matlab implementation)
   Alexander A. Auer      : GIAO ZORA, VPT2 properties, NMR spectrum
   Ute Becker             : Parallelization
   Giovanni Bistoni       : ED, misc. LED, open-shell LED, HFLD
   Martin Brehm           : Molecular dynamics
   Dmytro Bykov           : SCF Hessian
   Vijay G. Chilkuri      : MRCI spin determinant printing, contributions to CSF-ICE
   Dipayan Datta          : RHF DLPNO-CCSD density
   Achintya Kumar Dutta   : EOM-CC, STEOM-CC
   Dmitry Ganyushin       : Spin-Orbit,Spin-Spin,Magnetic field MRCI
   Miquel Garcia          : C-PCM and meta-GGA Hessian, CC/C-PCM, Gaussian charge scheme
   Yang Guo               : DLPNO-NEVPT2, F12-NEVPT2, CIM, IAO-localization
   Andreas Hansen         : Spin unrestricted coupled pair/coupled cluster methods
   Benjamin Helmich-Paris : MC-RPA, TRAH-SCF, COSX integrals
   Lee Huntington         : MR-EOM, pCC
   Robert Izsak           : Overlap fitted RIJCOSX, COSX-SCS-MP3, EOM
   Marcus Kettner         : VPT2
   Christian Kollmar      : KDIIS, OOCD, Brueckner-CCSD(T), CCSD density, CASPT2, CASPT2-K
   Simone Kossmann        : Meta GGA functionals, TD-DFT gradient, OOMP2, MP2 Hessian
   Martin Krupicka        : Initial AUTO-CI
   Lucas Lang             : DCDCAS
   Marvin Lechner         : AUTO-CI (C++ implementation), FIC-MRCC
   Dagmar Lenk            : GEPOL surface, SMD
   Dimitrios Liakos       : Extrapolation schemes; Compound Job, initial MDCI parallelization
   Dimitrios Manganas     : Further ROCIS development; embedding schemes
   Dimitrios Pantazis     : SARC Basis sets
   Anastasios Papadopoulos: AUTO-CI, single reference methods and gradients
   Taras Petrenko         : DFT Hessian,TD-DFT gradient, ASA, ECA, R-Raman, ABS, FL, XAS/XES, NRVS
   Peter Pinski           : DLPNO-MP2, DLPNO-MP2 Gradient
   Christoph Reimann      : Effective Core Potentials
   Marius Retegan         : Local ZFS, SOC
   Christoph Riplinger    : Optimizer, TS searches, QM/MM, DLPNO-CCSD(T), (RO)-DLPNO pert. Triples
   Tobias Risthaus        : Range-separated hybrids, TD-DFT gradient, RPA, STAB
   Michael Roemelt        : Original ROCIS implementation
   Masaaki Saitow         : Open-shell DLPNO-CCSD energy and density
   Barbara Sandhoefer     : DKH picture change effects
   Avijit Sen             : IP-ROCIS
   Kantharuban Sivalingam : CASSCF convergence, NEVPT2, FIC-MRCI
   Bernardo de Souza      : ESD, SOC TD-DFT
   Georgi Stoychev        : AutoAux, RI-MP2 NMR, DLPNO-MP2 response
   Willem Van den Heuvel  : Paramagnetic NMR
   Boris Wezisla          : Elementary symmetry handling
   Frank Wennmohs         : Technical directorship


 We gratefully acknowledge several colleagues who have allowed us to
 interface, adapt or use parts of their codes:
   Stefan Grimme, W. Hujo, H. Kruse, P. Pracht,  : VdW corrections, initial TS optimization,
                  C. Bannwarth, S. Ehlert          DFT functionals, gCP, sTDA/sTD-DF
   Ed Valeev, F. Pavosevic, A. Kumar             : LibInt (2-el integral package), F12 methods
   Garnet Chan, S. Sharma, J. Yang, R. Olivares  : DMRG
   Ulf Ekstrom                                   : XCFun DFT Library
   Mihaly Kallay                                 : mrcc  (arbitrary order and MRCC methods)
   Jiri Pittner, Ondrej Demel                    : Mk-CCSD
   Frank Weinhold                                : gennbo (NPA and NBO analysis)
   Christopher J. Cramer and Donald G. Truhlar   : smd solvation model
   Lars Goerigk                                  : TD-DFT with DH, B97 family of functionals
   V. Asgeirsson, H. Jonsson                     : NEB implementation
   FAccTs GmbH                                   : IRC, NEB, NEB-TS, DLPNO-Multilevel, CI-OPT
                                                   MM, QMMM, 2- and 3-layer-ONIOM, Crystal-QMMM,
                                                   LR-CPCM, SF, NACMEs, symmetry and pop. for TD-DFT,
                                                   nearIR, NL-DFT gradient (VV10), updates on ESD,
                                                   ML-optimized integration grids
   S Lehtola, MJT Oliveira, MAL Marques          : LibXC Library
   Liviu Ungur et al                             : ANISO software


 Your calculation uses the libint2 library for the computation of 2-el integrals
 For citations please refer to: http://libint.valeyev.net

 Your ORCA version has been built with support for libXC version: 5.1.0
 For citations please refer to: https://tddft.org/programs/libxc/

 This ORCA versions uses:
   CBLAS   interface :  Fast vector & matrix operations
   LAPACKE interface :  Fast linear algebra routines
   SCALAPACK package :  Parallel linear algebra routines
   Shared memory     :  Shared parallel matrices
   BLAS/LAPACK       :  OpenBLAS 0.3.15  USE64BITINT DYNAMIC_ARCH NO_AFFINITY Prescott SINGLE_THREADED
        Core in use  :  Prescott
   Copyright (c) 2011-2014, The OpenBLAS Project


================================================================================

----- Orbital basis set information -----
Your calculation utilizes the basis: cc-pVQZ 
       H, B-Ne : Obtained from the ccRepo (grant-hill.group.shef.ac.uk/ccrepo) Feb. 2017
                 T. H. Dunning, Jr., J. Chem. Phys. 90, 1007 (1989)
            He : Obtained from the ccRepo (grant-hill.group.shef.ac.uk/ccrepo) Feb. 2017
                 D. E. Woon, T. H. Dunning, Jr., J. Chem. Phys. 100, 2975 (1994)
  Li-Be, Na-Mg : Obtained from the ccRepo (grant-hill.group.shef.ac.uk/ccrepo) Feb. 2017
                 B. P. Prascher, D. E. Woon, K. A. Peterson, T. H. Dunning, Jr., A. K. Wilson, Theor. Chem. Acc. 128, 69 (2011)
         Al-Ar : Obtained from the ccRepo (grant-hill.group.shef.ac.uk/ccrepo) Feb. 2017
                 D. E. Woon, T. H. Dunning, Jr., J. Chem. Phys. 98, 1358 (1993)
            Ca : Obtained from the Peterson Research Group Website (tyr0.chem.wsu.edu/~kipeters) Feb. 2017
                 J. Koput, K. A. Peterson, J. Phys. Chem. 106, 9595 (2002)
         Sc-Zn : Obtained from the ccRepo (grant-hill.group.shef.ac.uk/ccrepo) Feb. 2017
                 N. B. Balabanov, K. A. Peterson, J. Chem. Phys. 123, 064107 (2005)
                 N. B. Balabanov, K. A. Peterson, J. Chem. Phys. 125, 074110 (2006)
         Ga-Kr : Obtained from the ccRepo (grant-hill.group.shef.ac.uk/ccrepo) Feb. 2017
                 A. K. Wilson, D. E. Woon, K. A. Peterson, T. H. Dunning, Jr., J. Chem. Phys. 110, 7667 (1999)

----- AuxC basis set information -----
Your calculation utilizes the auxiliary basis: cc-pVQZ/C 
  Obtained from the EMSL Basis Set Exchange (bse.pnl.gov) Feb. 2017
  H-He, B-F, Al-Ar, Ga-Kr : F. Weigend, A. Kohn, C. Hattig, J. Chem. Phys. 116, 3175 (2002)
             Li-Be, Na-Mg : C. Haettig, Phys. Chem. Chem. Phys. 7, 59 (2005)
                       Ne : C. Haettig, Phys. Chem. Chem. Phys. 7, 59 (2005)
                            F. Weigend, A. Kohn, C. Hattig, J. Chem. Phys. 116, 3175 (2002)
                    Sc-Zn : D. H. Bross, J. G. Hill, H. J. Werner, K. A. Peterson, J. Chem. Phys. 139, 094302 (2013)

================================================================================
                                        WARNINGS
                       Please study these warnings very carefully!
================================================================================


WARNING: Post HF methods need fully converged wavefunctions
  ===> : Setting SCFConvForced true
         You can overwrite this default with %scf ConvForced false 


WARNING: MDCI localization with Augmented Hessian Foster-Boys
  ===> : Switching off randomization!

INFO   : the flag for use of the SHARK integral package has been found!

================================================================================
                                       INPUT FILE
================================================================================
NAME = input
|  1> ! DLPNO-CCSD(T) cc-pVQZ cc-pVQZ/C TIGHTPNO TIGHTSCF
|  2> %maxcore 10000
|  3> %pal
|  4> nprocs 32
|  5> end
|  6> *xyz -1 1
|  7> H 4.850706887806 12.930045247481 7.689209185846
|  8> C 5.346426000000 11.988347000000 7.873239000000
|  9> H 5.819013000000 11.687329000000 6.932932000000
| 10> H 4.605060000000 11.216891000000 8.099044000000
| 11> C 6.387662000000 11.928182000000 8.970022000000
| 12> H 5.903592000000 12.002629000000 9.947034000000
| 13> H 7.075543000000 12.768916000000 8.881942000000
| 14> C 7.142698000000 10.602975000000 8.882104000000
| 15> H 7.893049000000 10.644855000000 8.097116000000
| 16> H 6.447551000000 9.809643000000 8.614145000000
| 17> N 7.760256000000 10.162289000000 10.124023000000
| 18> H 7.529732000000 9.239758000000 10.491614000000
| 19> C 8.667751000000 10.821990000000 10.824213000000
| 20> N 9.195685000000 11.962027000000 10.351146000000
| 21> H 9.474942000000 11.853049000000 9.367742000000
| 22> H 9.974131000000 12.288525000000 10.900438000000
| 23> N 9.004296000000 10.351841000000 12.015632000000
| 24> H 9.686201000000 10.828680000000 12.591580000000
| 25> H 8.666285000000 9.433300000000 12.271676000000
| 26> C 13.480725000000 10.218818000000 9.016925000000
| 27> H 13.998468000000 9.965429000000 9.928720000000
| 28> H 14.087631000000 10.443658000000 8.155052000000
| 29> C 12.149562000000 10.301016000000 8.989122000000
| 30> C 11.430055000000 10.713495000000 7.705600000000
| 31> O 12.052035000000 10.687461000000 6.637098000000
| 32> O 10.210655000000 11.055324000000 7.831657000000
| 33> O 11.397481000000 9.926419000000 10.054930000000
| 34> C 11.196621000000 8.265291000000 10.283546000000
| 35> H 10.787330000000 8.222793000000 11.291482000000
| 36> C 12.545622000000 7.774268000000 10.157422000000
| 37> H 13.219254000000 7.868103000000 10.987898000000
| 38> C 13.046194000000 7.550860000000 8.940683000000
| 39> C 12.147591000000 7.407513000000 7.799574000000
| 40> H 12.600487000000 7.221904000000 6.836444000000
| 41> C 10.828881000000 7.415141000000 7.959017000000
| 42> H 10.176171000000 7.172297000000 7.130177000000
| 43> C 10.176306000000 7.816570000000 9.239032000000
| 44> H 9.622480000000 8.731720000000 9.038147000000
| 45> O 9.285036000000 6.800543000000 9.665263000000
| 46> H 8.720506000000 7.129954000000 10.415313000000
| 47> C 14.527376000000 7.301884000000 8.753521000000
| 48> O 15.220167000000 7.158362000000 9.782438000000
| 49> O 14.943333000000 7.275179000000 7.570590000000
| 50> *
| 51> 
| 52>                          ****END OF INPUT****
================================================================================

                       ****************************
                       * Single Point Calculation *
                       ****************************

---------------------------------
CARTESIAN COORDINATES (ANGSTROEM)
---------------------------------
  H      4.850707   12.930045    7.689209
  C      5.346426   11.988347    7.873239
  H      5.819013   11.687329    6.932932
  H      4.605060   11.216891    8.099044
  C      6.387662   11.928182    8.970022
  H      5.903592   12.002629    9.947034
  H      7.075543   12.768916    8.881942
  C      7.142698   10.602975    8.882104
  H      7.893049   10.644855    8.097116
  H      6.447551    9.809643    8.614145
  N      7.760256   10.162289   10.124023
  H      7.529732    9.239758   10.491614
  C      8.667751   10.821990   10.824213
  N      9.195685   11.962027   10.351146
  H      9.474942   11.853049    9.367742
  H      9.974131   12.288525   10.900438
  N      9.004296   10.351841   12.015632
  H      9.686201   10.828680   12.591580
  H      8.666285    9.433300   12.271676
  C     13.480725   10.218818    9.016925
  H     13.998468    9.965429    9.928720
  H     14.087631   10.443658    8.155052
  C     12.149562   10.301016    8.989122
  C     11.430055   10.713495    7.705600
  O     12.052035   10.687461    6.637098
  O     10.210655   11.055324    7.831657
  O     11.397481    9.926419   10.054930
  C     11.196621    8.265291   10.283546
  H     10.787330    8.222793   11.291482
  C     12.545622    7.774268   10.157422
  H     13.219254    7.868103   10.987898
  C     13.046194    7.550860    8.940683
  C     12.147591    7.407513    7.799574
  H     12.600487    7.221904    6.836444
  C     10.828881    7.415141    7.959017
  H     10.176171    7.172297    7.130177
  C     10.176306    7.816570    9.239032
  H      9.622480    8.731720    9.038147
  O      9.285036    6.800543    9.665263
  H      8.720506    7.129954   10.415313
  C     14.527376    7.301884    8.753521
  O     15.220167    7.158362    9.782438
  O     14.943333    7.275179    7.570590

----------------------------
CARTESIAN COORDINATES (A.U.)
----------------------------
  NO LB      ZA    FRAG     MASS         X           Y           Z
   0 H     1.0000    0     1.008    9.166508   24.434244   14.530500
   1 C     6.0000    0    12.011   10.103281   22.654693   14.878265
   2 H     1.0000    0     1.008   10.996341   22.085851   13.101343
   3 H     1.0000    0     1.008    8.702302   21.196852   15.304975
   4 C     6.0000    0    12.011   12.070932   22.540997   16.950885
   5 H     1.0000    0     1.008   11.156172   22.681682   18.797170
   6 H     1.0000    0     1.008   13.370839   24.129754   16.784438
   7 C     6.0000    0    12.011   13.497743   20.036719   16.784744
   8 H     1.0000    0     1.008   14.915701   20.115861   15.301332
   9 H     1.0000    0     1.008   12.184106   18.537539   16.278375
  10 N     7.0000    0    14.007   14.664759   19.203943   19.131631
  11 H     1.0000    0     1.008   14.229131   17.460612   19.826277
  12 C     6.0000    0    12.011   16.379676   20.450597   20.454798
  13 N     7.0000    0    14.007   17.377326   22.604955   19.560831
  14 H     1.0000    0     1.008   17.905046   22.399016   17.702467
  15 H     1.0000    0     1.008   18.848376   23.221947   20.598843
  16 N     7.0000    0    14.007   17.015653   19.562144   22.706254
  17 H     1.0000    0     1.008   18.304267   20.463240   23.794638
  18 H     1.0000    0     1.008   16.376905   17.826354   23.190107
  19 C     6.0000    0    12.011   25.474878   19.310767   17.039519
  20 H     1.0000    0     1.008   26.453271   18.831932   18.762562
  21 H     1.0000    0     1.008   26.621764   19.735653   15.410815
  22 C     6.0000    0    12.011   22.959345   19.466099   16.986979
  23 C     6.0000    0    12.011   21.599674   20.245571   14.561474
  24 O     8.0000    0    15.999   22.775046   20.196374   12.542298
  25 O     8.0000    0    15.999   19.295342   20.891535   14.799687
  26 O     8.0000    0    15.999   21.538118   18.758213   19.001064
  27 C     6.0000    0    12.011   21.158547   15.619136   19.433086
  28 H     1.0000    0     1.008   20.385099   15.538827   21.337809
  29 C     6.0000    0    12.011   23.707790   14.691237   19.194746
  30 H     1.0000    0     1.008   24.980770   14.868560   20.764118
  31 C     6.0000    0    12.011   24.653734   14.269057   16.895442
  32 C     6.0000    0    12.011   22.955620   13.998171   14.739059
  33 H     1.0000    0     1.008   23.811470   13.647421   12.919007
  34 C     6.0000    0    12.011   20.463619   14.012586   15.040362
  35 H     1.0000    0     1.008   19.230176   13.553677   13.474082
  36 C     6.0000    0    12.011   19.230431   14.771177   17.459240
  37 H     1.0000    0     1.008   18.183852   16.500559   17.079623
  38 O     8.0000    0    15.999   17.546175   12.851164   18.264700
  39 H     1.0000    0     1.008   16.479368   13.473660   19.682089
  40 C     6.0000    0    12.011   27.452762   13.798561   16.541757
  41 O     8.0000    0    15.999   28.761947   13.527344   18.486129
  42 O     8.0000    0    15.999   28.238807   13.748096   14.306342

--------------------------------
INTERNAL COORDINATES (ANGSTROEM)
--------------------------------
 H      0   0   0     0.000000000000     0.00000000     0.00000000
 C      1   0   0     1.080000000000     0.00000000     0.00000000
 H      2   1   0     1.094590134773   106.95260089     0.00000000
 H      2   1   3     1.093506197475   109.82471860   245.37302403
 C      2   1   3     1.513514183617   118.28870507   122.51410723
 H      5   2   1     1.092894582681   109.90126083    70.84452605
 H      5   2   1     1.089849537926   110.18107820   312.67074148
 C      5   2   1     1.527737715993   109.43768459   190.79758243
 H      8   5   2     1.086732127870   110.44946018    79.15569574
 H      8   5   2     1.088304663003   109.31821096   321.76075272
 N      8   5   2     1.455316060696   115.04172151   203.83223838
 H     11   8   5     1.019474327199   119.06233953   124.34900657
 C     11   8   5     1.322504676939   126.29496267   300.86302970
 N     13  11   8     1.342457096601   120.45722446   354.07019223
 H     14  13  11     1.028077868524   110.72475824   313.23898345
 H     14  13  11     1.007125027087   112.77271232   189.17029313
 N     13  11   8     1.324304290104   118.26869672   171.87525424
 H     17  13  11     1.011971323531   121.06333257   180.70095678
 H     17  13  11     1.011695376454   117.71734152     9.73725322
 C     15  14  13     4.340516210307   111.58644227   273.85794857
 H     20  15  14     1.078718647931   117.58545174     2.06565677
 H     20  15  14     1.077827902109   120.38097857   207.78887285
 C     20  15  14     1.333988174828    19.53416074   106.64867448
 C     23  20  15     1.528155087998   120.26327560    91.32964208
 O     24  23  20     1.236621774659   118.89672964    15.48579082
 O     24  23  20     1.272664053272   116.13153563   195.10654747
 O     23  20  15     1.357164483706   121.30591597   266.24131418
 C     27  23  20     1.688773592712   116.34136579   283.23520556
 H     28  27  23     1.088696552204   102.03111500   166.90262970
 C     28  27  23     1.441115730226   102.23740284    47.87266840
 H     30  28  27     1.073440946315   119.33656029    79.19317324
 C     30  28  27     1.334517611637   119.20620000   277.19237370
 C     32  30  28     1.459508637830   119.89038680   341.49009525
 H     33  32  30     1.080363311390   117.11494365   180.35392422
 C     33  32  30     1.328335921645   121.11895489   355.91094654
 H     35  33  32     1.082579926858   120.35559049   188.47962408
 C     35  33  32     1.491790123607   122.60279310    11.61866605
 H     37  35  33     1.088382995090   106.88707423   114.26876367
 O     37  35  33     1.417161226886   109.89253682   233.33703667
 H     39  37  35     0.994877243845   110.25700868   190.85094223
 C     32  30  28     1.513578138037   120.48728397   167.85503957
 O     41  32  30     1.248690564974   117.38414361     8.23843009
 O     41  32  30     1.254216541764   116.40274146   189.03293231

---------------------------
INTERNAL COORDINATES (A.U.)
---------------------------
 H      0   0   0     0.000000000000     0.00000000     0.00000000
 C      1   0   0     2.040904224636     0.00000000     0.00000000
 H      2   1   0     2.068475583613   106.95260089     0.00000000
 H      2   1   3     2.066427238974   109.82471860   245.37302403
 C      2   1   3     2.860127306842   118.28870507   122.51410723
 H      5   2   1     2.065271454513   109.90126083    70.84452605
 H      5   2   1     2.059517153860   110.18107820   312.67074148
 C      5   2   1     2.887005887690   109.43768459   190.79758243
 H      8   5   2     2.053626102608   110.44946018    79.15569574
 H      8   5   2     2.056597763345   109.31821096   321.76075272
 N      8   5   2     2.750148793013   115.04172151   203.83223838
 H     11   8   5     1.926527278970   119.06233953   124.34900657
 C     11   8   5     2.499171650245   126.29496267   300.86302970
 N     13  11   8     2.536876259115   120.45722446   354.07019223
 H     14  13  11     1.942785615856   110.72475824   313.23898345
 H     14  13  11     1.903190483812   112.77271232   189.17029313
 N     13  11   8     2.502572426273   118.26869672   171.87525424
 H     17  13  11     1.912348656856   121.06333257   180.70095678
 H     17  13  11     1.911827192452   117.71734152     9.73725322
 C     15  14  13     8.202386917326   111.58644227   273.85794857
 H     20  15  14     2.038482820144   117.58545174     2.06565677
 H     20  15  14     2.036799554485   120.38097857   207.78887285
 C     20  15  14     2.520872316315    19.53416074   106.64867448
 C     23  20  15     2.887794606474   120.26327560    91.32964208
 O     24  23  20     2.336876485349   118.89672964    15.48579082
 O     24  23  20     2.404986521170   116.13153563   195.10654747
 O     23  20  15     2.564669192890   121.30591597   266.24131418
 C     27  23  20     3.191319592423   116.34136579   283.23520556
 H     28  27  23     2.057338326610   102.03111500   166.90262970
 C     28  27  23     2.723314057414   102.23740284    47.87266840
 H     30  28  27     2.028509409472   119.33656029    79.19317324
 C     30  28  27     2.521872806888   119.20620000   277.19237370
 C     32  30  28     2.758071615590   119.89038680   341.49009525
 H     33  32  30     2.041590783663   117.11494365   180.35392422
 C     33  32  30     2.510191105759   121.11895489   355.91094654
 H     35  33  32     2.045779579842   120.35559049   188.47962408
 C     35  33  32     2.819074782906   122.60279310    11.61866605
 H     37  35  33     2.056745789537   106.88707423   114.26876367
 O     37  35  33     2.678046606427   109.89253682   233.33703667
 H     39  37  35     1.880045527738   110.25700868   190.85094223
 C     32  30  28     2.860248163181   120.48728397   167.85503957
 O     41  32  30     2.359683193811   117.38414361     8.23843009
 O     41  32  30     2.370125776568   116.40274146   189.03293231

---------------------
BASIS SET INFORMATION
---------------------
There are 4 groups of distinct atoms

 Group   1 Type H   : 6s3p2d1f contracted to 4s3p2d1f pattern {3111/111/11/1}
 Group   2 Type C   : 21s6p3d2f1g contracted to 5s4p3d2f1g pattern {99111/3111/111/11/1}
 Group   3 Type N   : 21s6p3d2f1g contracted to 5s4p3d2f1g pattern {99111/3111/111/11/1}
 Group   4 Type O   : 21s6p3d2f1g contracted to 5s4p3d2f1g pattern {99111/3111/111/11/1}

Atom   0H    basis set group =>   1
Atom   1C    basis set group =>   2
Atom   2H    basis set group =>   1
Atom   3H    basis set group =>   1
Atom   4C    basis set group =>   2
Atom   5H    basis set group =>   1
Atom   6H    basis set group =>   1
Atom   7C    basis set group =>   2
Atom   8H    basis set group =>   1
Atom   9H    basis set group =>   1
Atom  10N    basis set group =>   3
Atom  11H    basis set group =>   1
Atom  12C    basis set group =>   2
Atom  13N    basis set group =>   3
Atom  14H    basis set group =>   1
Atom  15H    basis set group =>   1
Atom  16N    basis set group =>   3
Atom  17H    basis set group =>   1
Atom  18H    basis set group =>   1
Atom  19C    basis set group =>   2
Atom  20H    basis set group =>   1
Atom  21H    basis set group =>   1
Atom  22C    basis set group =>   2
Atom  23C    basis set group =>   2
Atom  24O    basis set group =>   4
Atom  25O    basis set group =>   4
Atom  26O    basis set group =>   4
Atom  27C    basis set group =>   2
Atom  28H    basis set group =>   1
Atom  29C    basis set group =>   2
Atom  30H    basis set group =>   1
Atom  31C    basis set group =>   2
Atom  32C    basis set group =>   2
Atom  33H    basis set group =>   1
Atom  34C    basis set group =>   2
Atom  35H    basis set group =>   1
Atom  36C    basis set group =>   2
Atom  37H    basis set group =>   1
Atom  38O    basis set group =>   4
Atom  39H    basis set group =>   1
Atom  40C    basis set group =>   2
Atom  41O    basis set group =>   4
Atom  42O    basis set group =>   4
---------------------------------
AUXILIARY/C BASIS SET INFORMATION
---------------------------------
There are 4 groups of distinct atoms

 Group   1 Type H   : 5s4p3d2f1g contracted to 5s4p3d2f1g pattern {11111/1111/111/11/1}
 Group   2 Type C   : 8s7p6d5f3g1h contracted to 8s7p6d5f3g1h pattern {11111111/1111111/111111/11111/111/1}
 Group   3 Type N   : 8s7p6d5f3g1h contracted to 8s7p6d5f3g1h pattern {11111111/1111111/111111/11111/111/1}
 Group   4 Type O   : 8s7p6d5f3g1h contracted to 8s7p6d5f3g1h pattern {11111111/1111111/111111/11111/111/1}

Atom   0H    basis set group =>   1
Atom   1C    basis set group =>   2
Atom   2H    basis set group =>   1
Atom   3H    basis set group =>   1
Atom   4C    basis set group =>   2
Atom   5H    basis set group =>   1
Atom   6H    basis set group =>   1
Atom   7C    basis set group =>   2
Atom   8H    basis set group =>   1
Atom   9H    basis set group =>   1
Atom  10N    basis set group =>   3
Atom  11H    basis set group =>   1
Atom  12C    basis set group =>   2
Atom  13N    basis set group =>   3
Atom  14H    basis set group =>   1
Atom  15H    basis set group =>   1
Atom  16N    basis set group =>   3
Atom  17H    basis set group =>   1
Atom  18H    basis set group =>   1
Atom  19C    basis set group =>   2
Atom  20H    basis set group =>   1
Atom  21H    basis set group =>   1
Atom  22C    basis set group =>   2
Atom  23C    basis set group =>   2
Atom  24O    basis set group =>   4
Atom  25O    basis set group =>   4
Atom  26O    basis set group =>   4
Atom  27C    basis set group =>   2
Atom  28H    basis set group =>   1
Atom  29C    basis set group =>   2
Atom  30H    basis set group =>   1
Atom  31C    basis set group =>   2
Atom  32C    basis set group =>   2
Atom  33H    basis set group =>   1
Atom  34C    basis set group =>   2
Atom  35H    basis set group =>   1
Atom  36C    basis set group =>   2
Atom  37H    basis set group =>   1
Atom  38O    basis set group =>   4
Atom  39H    basis set group =>   1
Atom  40C    basis set group =>   2
Atom  41O    basis set group =>   4
Atom  42O    basis set group =>   4


           ************************************************************
           *        Program running with 32 parallel MPI-processes    *
           *              working on a common directory               *
           ************************************************************
------------------------------------------------------------------------------
                           ORCA GTO INTEGRAL CALCULATION
------------------------------------------------------------------------------
------------------------------------------------------------------------------
                   ___                                                        
                  /   \      - P O W E R E D   B Y -                         
                 /     \                                                     
                 |  |  |   _    _      __       _____    __    __             
                 |  |  |  | |  | |    /  \     |  _  \  |  |  /  |          
                  \  \/   | |  | |   /    \    | | | |  |  | /  /          
                 / \  \   | |__| |  /  /\  \   | |_| |  |  |/  /          
                |  |  |   |  __  | /  /__\  \  |    /   |      \           
                |  |  |   | |  | | |   __   |  |    \   |  |\   \          
                \     /   | |  | | |  |  |  |  | |\  \  |  | \   \       
                 \___/    |_|  |_| |__|  |__|  |_| \__\ |__|  \__/        
                                                                              
                      - O R C A' S   B I G   F R I E N D -                    
                                      &                                       
                       - I N T E G R A L  F E E D E R -                       
                                                                              
 v1 FN, 2020, v2 2021                                                         
------------------------------------------------------------------------------


Reading SHARK input file input.SHARKINP.tmp ... ok
----------------------
SHARK INTEGRAL PACKAGE
----------------------

Number of atoms                             ...     43
Number of basis functions                   ...   2026
Number of shells                            ...    706
Maximum angular momentum                    ...      4
Integral batch strategy                     ... SHARK/LIBINT Hybrid
RI-J (if used) integral strategy            ... SPLIT-RIJ (Revised 2003 algorithm where possible)
Printlevel                                  ...      1
Contraction scheme used                     ... PARTIAL GENERAL contraction
Coulomb Range Separation                    ... NOT USED
Exchange Range Separation                   ... NOT USED
Finite Nucleus Model                        ... NOT USED
Auxiliary Coulomb fitting basis             ... NOT available
Auxiliary J/K fitting basis                 ... NOT available
Auxiliary Correlation fitting basis         ... AVAILABLE
   # of basis functions in Aux-C            ...   4136
   # of shells in Aux-C                     ...    990
   Maximum angular momentum in Aux-C        ...      5
Auxiliary 'external' fitting basis          ... NOT available
Integral threshold                          ...     2.500000e-11
Primitive cut-off                           ...     2.500000e-12
Primitive pair pre-selection threshold      ...     2.500000e-12

Calculating pre-screening integrals         ... done (  0.4 sec) Dimension = 706
Calculating pre-screening integrals (ORCA)  ... done (  0.6 sec) Dimension = 545
Organizing shell pair data                  ... done (  1.7 sec)
Shell pair information
Total number of shell pairs                 ...    249571
Shell pairs after pre-screening             ...    122079
Total number of primitive shell pairs       ...    314157
Primitive shell pairs kept                  ...    138306
          la=0 lb=0:  25314 shell pairs
          la=1 lb=0:  28737 shell pairs
          la=1 lb=1:   7649 shell pairs
          la=2 lb=0:  18131 shell pairs
          la=2 lb=1:  10178 shell pairs
          la=2 lb=2:   3405 shell pairs
          la=3 lb=0:  10039 shell pairs
          la=3 lb=1:   5863 shell pairs
          la=3 lb=2:   3841 shell pairs
          la=3 lb=3:   1122 shell pairs
          la=4 lb=0:   3484 shell pairs
          la=4 lb=1:   2047 shell pairs
          la=4 lb=2:   1353 shell pairs
          la=4 lb=3:    771 shell pairs
          la=4 lb=4:    145 shell pairs

Calculating one electron integrals          ... done (  0.5 sec)
Calculating RI/C V-Matrix + Cholesky decomp.... done (  0.9 sec)
Calculating Nuclear repulsion               ... done (  0.0 sec) ENN=   2110.924043818271 Eh

SHARK setup successfully completed in   6.6 seconds

Maximum memory used throughout the entire GTOINT-calculation: 181.0 MB


           ************************************************************
           *        Program running with 32 parallel MPI-processes    *
           *              working on a common directory               *
           ************************************************************
-------------------------------------------------------------------------------
                                 ORCA SCF
-------------------------------------------------------------------------------

------------
SCF SETTINGS
------------
Hamiltonian:
 Ab initio Hamiltonian  Method          .... Hartree-Fock(GTOs)


General Settings:
 Integral files         IntName         .... input
 Hartree-Fock type      HFTyp           .... RHF
 Total Charge           Charge          ....   -1
 Multiplicity           Mult            ....    1
 Number of Electrons    NEL             ....  174
 Basis Dimension        Dim             .... 1865
 Nuclear Repulsion      ENuc            ....   2110.9240438183 Eh

Convergence Acceleration:
 DIIS                   CNVDIIS         .... on
   Start iteration      DIISMaxIt       ....    12
   Startup error        DIISStart       ....  0.200000
   # of expansion vecs  DIISMaxEq       ....     5
   Bias factor          DIISBfac        ....   1.050
   Max. coefficient     DIISMaxC        ....  10.000
 Trust-Rad. Augm. Hess. CNVTRAH         .... auto
   Auto Start mean grad. ratio tolernc. ....  1.125000
   Auto Start start iteration           ....    20
   Auto Start num. interpolation iter.  ....    10
   Max. Number of Micro iterations      ....    16
   Max. Number of Macro iterations      .... Maxiter - #DIIS iter
   Number of Davidson start vectors     ....     2
   Converg. threshold I  (grad. norm)   ....   1.000e-05
   Converg. threshold II (energy diff.) ....   1.000e-08
   Grad. Scal. Fac. for Micro threshold ....   0.100
   Minimum threshold for Micro iter.    ....   0.010
   NR start threshold (gradient norm)   ....   0.001
   Initial trust radius                 ....   0.400
   Minimum AH scaling param. (alpha)    ....   1.000
   Maximum AH scaling param. (alpha)    .... 1000.000
   Orbital update algorithm             .... Taylor
   White noise on init. David. guess    .... on
   Maximum white noise                  ....   0.010
   Quad. conv. algorithm                .... NR
 SOSCF                  CNVSOSCF        .... on
   Start iteration      SOSCFMaxIt      ....   150
   Startup grad/error   SOSCFStart      ....  0.003300
 Level Shifting         CNVShift        .... on
   Level shift para.    LevelShift      ....    0.2500
   Turn off err/grad.   ShiftErr        ....    0.0010
 Zerner damping         CNVZerner       .... off
 Static damping         CNVDamp         .... on
   Fraction old density DampFac         ....    0.7000
   Max. Damping (<1)    DampMax         ....    0.9800
   Min. Damping (>=0)   DampMin         ....    0.0000
   Turn off err/grad.   DampErr         ....    0.1000
 Fernandez-Rico         CNVRico         .... off

SCF Procedure:
 Maximum # iterations   MaxIter         ....   125
 SCF integral mode      SCFMode         .... Direct
   Integral package                     .... SHARK and LIBINT hybrid scheme
 Reset frequency        DirectResetFreq ....    20
 Integral Threshold     Thresh          ....  2.500e-11 Eh
 Primitive CutOff       TCut            ....  2.500e-12 Eh

Convergence Tolerance:
 Convergence Check Mode ConvCheckMode   .... Total+1el-Energy
 Convergence forced     ConvForced      .... 1
 Energy Change          TolE            ....  1.000e-08 Eh
 1-El. energy change                    ....  1.000e-05 Eh
 Orbital Gradient       TolG            ....  1.000e-05
 Orbital Rotation angle TolX            ....  1.000e-05
 DIIS Error             TolErr          ....  5.000e-07


Diagonalization of the overlap matrix:
Smallest eigenvalue                        ... 7.049e-06
Time for diagonalization                   ...    0.437 sec
Threshold for overlap eigenvalues          ... 1.000e-08
Number of eigenvalues below threshold      ... 0
Time for construction of square roots      ...    0.412 sec
Total time needed                          ...    0.863 sec

Time for model grid setup =    0.439 sec

------------------------------
INITIAL GUESS: MODEL POTENTIAL
------------------------------
Loading Hartree-Fock densities                     ... done
Calculating cut-offs                               ... done
Initializing the effective Hamiltonian             ... done
Setting up the integral package (SHARK)            ... done
Starting the Coulomb interaction                   ... done (   0.7 sec)
Reading the grid                                   ... done
Mapping shells                                     ... done
Starting the XC term evaluation                    ... done (   0.5 sec)
Transforming the Hamiltonian                       ... done (   0.3 sec)
Diagonalizing the Hamiltonian                      ... done (   0.4 sec)
Back transforming the eigenvectors                 ... done (   0.1 sec)
Now organizing SCF variables                       ... done
                      ------------------
                      INITIAL GUESS DONE (   3.1 sec)
                      ------------------
--------------
SCF ITERATIONS
--------------
ITER       Energy         Delta-E        Max-DP      RMS-DP      [F,P]     Damp
               ***  Starting incremental Fock matrix formation  ***
  0  -1153.5095985665   0.000000000000 0.23765777  0.00049948  0.3813402 0.7000
  1  -1153.9332075717  -0.423609005186 0.27284573  0.00050799  0.2317501 0.7000
                               ***Turning on DIIS***
  2  -1154.1853888212  -0.252181249503 0.16621425  0.00032681  0.1336769 0.7000
  3  -1156.9389651203  -2.753576299086 0.13911381  0.00047861  0.0783184 0.0000
  4  -1154.6210057868   2.317959333574 0.11270416  0.00016451  0.0076979 0.0000
  5  -1154.7235162044  -0.102510417612 0.04537527  0.00007053  0.0040007 0.0000
                      *** Initiating the SOSCF procedure ***
                           *** Shutting down DIIS ***
                      *** Re-Reading the Fockian *** 
                      *** Removing any level shift *** 
ITER      Energy       Delta-E        Grad      Rot      Max-DP    RMS-DP
  6  -1154.69424062   0.0292755886  0.002057  0.002057  0.025354  0.000039
               *** Restarting incremental Fock matrix formation ***
  7  -1154.71418484  -0.0199442225  0.000987  0.001985  0.012676  0.000023
  8  -1154.71423337  -0.0000485323  0.000425  0.002072  0.010462  0.000019
  9  -1154.71425013  -0.0000167583  0.000068  0.000195  0.003272  0.000006
 10  -1154.71425163  -0.0000014966  0.000027  0.000070  0.000725  0.000001
 11  -1154.71425173  -0.0000001092  0.000017  0.000078  0.000217  0.000001
 12  -1154.71425177  -0.0000000321  0.000006  0.000026  0.000084  0.000000
 13  -1154.71425179  -0.0000000274  0.000003  0.000014  0.000077  0.000000
                  ***Gradient check signals convergence***
              ***Rediagonalizing the Fockian in SOSCF/NRSCF***

               *****************************************************
               *                     SUCCESS                       *
               *           SCF CONVERGED AFTER  14 CYCLES          *
               *****************************************************


----------------
TOTAL SCF ENERGY
----------------

Total Energy       :        -1154.71425178 Eh          -31421.37222 eV

Components:
Nuclear Repulsion  :         2110.92404382 Eh           57441.16348 eV
Electronic Energy  :        -3265.63829560 Eh          -88862.53571 eV
One Electron Energy:        -5802.17264176 Eh         -157885.14431 eV
Two Electron Energy:         2536.53434616 Eh           69022.60860 eV

Virial components:
Potential Energy   :        -2308.55539032 Eh          -62818.98583 eV
Kinetic Energy     :         1153.84113854 Eh           31397.61360 eV
Virial Ratio       :            2.00075670


---------------
SCF CONVERGENCE
---------------

  Last Energy change         ...    1.6630e-08  Tolerance :   1.0000e-08
  Last MAX-Density change    ...    1.5434e-05  Tolerance :   1.0000e-07
  Last RMS-Density change    ...    5.4626e-08  Tolerance :   5.0000e-09
  Last Orbital Gradient      ...    7.6895e-07  Tolerance :   1.0000e-05
  Last Orbital Rotation      ...    3.3293e-06  Tolerance :   1.0000e-05

             **** THE GBW FILE WAS UPDATED (input.gbw) ****
             **** DENSITY input.scfp WAS UPDATED ****
             **** ENERGY FILE WAS UPDATED (input.en.tmp) ****
             **** THE GBW FILE WAS UPDATED (input.gbw) ****
             **** DENSITY input.scfp WAS UPDATED ****
----------------
ORBITAL ENERGIES
----------------

  NO   OCC          E(Eh)            E(eV) 
   0   2.0000     -20.487091      -557.4821 
   1   2.0000     -20.433918      -556.0352 
   2   2.0000     -20.338442      -553.4372 
   3   2.0000     -20.320966      -552.9616 
   4   2.0000     -20.295739      -552.2751 
   5   2.0000     -20.294741      -552.2480 
   6   2.0000     -15.581865      -424.0041 
   7   2.0000     -15.573672      -423.7812 
   8   2.0000     -15.531067      -422.6218 
   9   2.0000     -11.366064      -309.2863 
  10   2.0000     -11.219135      -305.2882 
  11   2.0000     -11.192383      -304.5602 
  12   2.0000     -11.184001      -304.3321 
  13   2.0000     -11.177608      -304.1582 
  14   2.0000     -11.172835      -304.0283 
  15   2.0000     -11.168922      -303.9218 
  16   2.0000     -11.144459      -303.2561 
  17   2.0000     -11.127192      -302.7863 
  18   2.0000     -11.098955      -302.0179 
  19   2.0000     -11.097658      -301.9826 
  20   2.0000     -11.095582      -301.9261 
  21   2.0000     -11.076809      -301.4153 
  22   2.0000     -11.071736      -301.2772 
  23   2.0000      -1.328033       -36.1376 
  24   2.0000      -1.282253       -34.8919 
  25   2.0000      -1.233149       -33.5557 
  26   2.0000      -1.204825       -32.7850 
  27   2.0000      -1.195313       -32.5261 
  28   2.0000      -1.182788       -32.1853 
  29   2.0000      -1.164030       -31.6749 
  30   2.0000      -1.107906       -30.1477 
  31   2.0000      -1.075472       -29.2651 
  32   2.0000      -1.021445       -27.7949 
  33   2.0000      -1.011219       -27.5167 
  34   2.0000      -0.909111       -24.7382 
  35   2.0000      -0.903106       -24.5748 
  36   2.0000      -0.897401       -24.4195 
  37   2.0000      -0.857108       -23.3231 
  38   2.0000      -0.823025       -22.3957 
  39   2.0000      -0.775726       -21.1086 
  40   2.0000      -0.751833       -20.4584 
  41   2.0000      -0.742876       -20.2147 
  42   2.0000      -0.725000       -19.7283 
  43   2.0000      -0.702850       -19.1255 
  44   2.0000      -0.680833       -18.5264 
  45   2.0000      -0.640487       -17.4285 
  46   2.0000      -0.629520       -17.1301 
  47   2.0000      -0.611048       -16.6275 
  48   2.0000      -0.608123       -16.5479 
  49   2.0000      -0.605135       -16.4666 
  50   2.0000      -0.596554       -16.2331 
  51   2.0000      -0.577831       -15.7236 
  52   2.0000      -0.565746       -15.3947 
  53   2.0000      -0.553095       -15.0505 
  54   2.0000      -0.530467       -14.4347 
  55   2.0000      -0.523556       -14.2467 
  56   2.0000      -0.508067       -13.8252 
  57   2.0000      -0.500899       -13.6302 
  58   2.0000      -0.496185       -13.5019 
  59   2.0000      -0.482077       -13.1180 
  60   2.0000      -0.479980       -13.0609 
  61   2.0000      -0.475439       -12.9374 
  62   2.0000      -0.469718       -12.7817 
  63   2.0000      -0.457768       -12.4565 
  64   2.0000      -0.448201       -12.1962 
  65   2.0000      -0.438246       -11.9253 
  66   2.0000      -0.435747       -11.8573 
  67   2.0000      -0.427256       -11.6262 
  68   2.0000      -0.416132       -11.3235 
  69   2.0000      -0.409704       -11.1486 
  70   2.0000      -0.402316       -10.9476 
  71   2.0000      -0.399777       -10.8785 
  72   2.0000      -0.388168       -10.5626 
  73   2.0000      -0.378701       -10.3050 
  74   2.0000      -0.374524       -10.1913 
  75   2.0000      -0.360200        -9.8015 
  76   2.0000      -0.355586        -9.6760 
  77   2.0000      -0.331940        -9.0325 
  78   2.0000      -0.286235        -7.7889 
  79   2.0000      -0.260743        -7.0952 
  80   2.0000      -0.242335        -6.5943 
  81   2.0000      -0.239401        -6.5144 
  82   2.0000      -0.224778        -6.1165 
  83   2.0000      -0.217613        -5.9216 
  84   2.0000      -0.200628        -5.4594 
  85   2.0000      -0.195956        -5.3322 
  86   2.0000      -0.179974        -4.8973 
  87   0.0000       0.115389         3.1399 
  88   0.0000       0.152593         4.1523 
  89   0.0000       0.160571         4.3693 
  90   0.0000       0.181206         4.9309 
  91   0.0000       0.187994         5.1156 
  92   0.0000       0.202185         5.5017 
  93   0.0000       0.205786         5.5997 
  94   0.0000       0.211262         5.7487 
  95   0.0000       0.227839         6.1998 
  96   0.0000       0.232989         6.3400 
  97   0.0000       0.241566         6.5733 
  98   0.0000       0.248534         6.7629 
  99   0.0000       0.252958         6.8833 
 100   0.0000       0.258979         7.0472 
 101   0.0000       0.266837         7.2610 
 102   0.0000       0.272295         7.4095 
 103   0.0000       0.288134         7.8405 
 104   0.0000       0.295855         8.0506 
 105   0.0000       0.302092         8.2203 
 106   0.0000       0.312365         8.4999 
 107   0.0000       0.313626         8.5342 
 108   0.0000       0.320024         8.7083 
 109   0.0000       0.325186         8.8488 
 110   0.0000       0.334716         9.1081 
 111   0.0000       0.342609         9.3229 
 112   0.0000       0.348011         9.4698 
 113   0.0000       0.354214         9.6387 
 114   0.0000       0.362979         9.8772 
 115   0.0000       0.363574         9.8933 
 116   0.0000       0.369230        10.0472 
 117   0.0000       0.381991        10.3945 
 118   0.0000       0.384269        10.4565 
 119   0.0000       0.388238        10.5645 
 120   0.0000       0.398276        10.8376 
 121   0.0000       0.403588        10.9822 
 122   0.0000       0.409793        11.1510 
 123   0.0000       0.417274        11.3546 
 124   0.0000       0.419204        11.4071 
 125   0.0000       0.423131        11.5140 
 126   0.0000       0.431195        11.7334 
 127   0.0000       0.436008        11.8644 
 128   0.0000       0.440672        11.9913 
 129   0.0000       0.447159        12.1678 
 130   0.0000       0.450034        12.2461 
 131   0.0000       0.454537        12.3686 
 132   0.0000       0.469930        12.7874 
 133   0.0000       0.475141        12.9292 
 134   0.0000       0.475495        12.9389 
 135   0.0000       0.479622        13.0512 
 136   0.0000       0.489631        13.3235 
 137   0.0000       0.490336        13.3427 
 138   0.0000       0.493977        13.4418 
 139   0.0000       0.498409        13.5624 
 140   0.0000       0.501089        13.6353 
 141   0.0000       0.510174        13.8825 
 142   0.0000       0.511785        13.9264 
 143   0.0000       0.514170        13.9913 
 144   0.0000       0.519240        14.1292 
 145   0.0000       0.522871        14.2281 
 146   0.0000       0.526496        14.3267 
 147   0.0000       0.535013        14.5584 
 148   0.0000       0.536409        14.5964 
 149   0.0000       0.540683        14.7127 
 150   0.0000       0.543519        14.7899 
 151   0.0000       0.545122        14.8335 
 152   0.0000       0.549394        14.9498 
 153   0.0000       0.556477        15.1425 
 154   0.0000       0.559475        15.2241 
 155   0.0000       0.563108        15.3230 
 156   0.0000       0.572680        15.5834 
 157   0.0000       0.573778        15.6133 
 158   0.0000       0.578033        15.7291 
 159   0.0000       0.581531        15.8243 
 160   0.0000       0.587244        15.9797 
 161   0.0000       0.590656        16.0726 
 162   0.0000       0.593411        16.1475 
 163   0.0000       0.599342        16.3089 
 164   0.0000       0.600268        16.3341 
 165   0.0000       0.606107        16.4930 
 166   0.0000       0.611095        16.6287 
 167   0.0000       0.613655        16.6984 
 168   0.0000       0.617296        16.7975 
 169   0.0000       0.624670        16.9981 
 170   0.0000       0.628889        17.1129 
 171   0.0000       0.630894        17.1675 
 172   0.0000       0.636281        17.3141 
 173   0.0000       0.640257        17.4223 
 174   0.0000       0.642313        17.4782 
 175   0.0000       0.645163        17.5558 
 176   0.0000       0.650015        17.6878 
 177   0.0000       0.658050        17.9065 
 178   0.0000       0.663490        18.0545 
 179   0.0000       0.668495        18.1907 
 180   0.0000       0.674051        18.3419 
 181   0.0000       0.680368        18.5137 
 182   0.0000       0.682300        18.5663 
 183   0.0000       0.688217        18.7273 
 184   0.0000       0.691306        18.8114 
 185   0.0000       0.696485        18.9523 
 186   0.0000       0.699447        19.0329 
 187   0.0000       0.704035        19.1578 
 188   0.0000       0.712089        19.3769 
 189   0.0000       0.715820        19.4784 
 190   0.0000       0.717430        19.5223 
 191   0.0000       0.726178        19.7603 
 192   0.0000       0.734778        19.9943 
 193   0.0000       0.739187        20.1143 
 194   0.0000       0.745004        20.2726 
 195   0.0000       0.747901        20.3514 
 196   0.0000       0.754690        20.5362 
 197   0.0000       0.767369        20.8812 
 198   0.0000       0.773556        21.0495 
 199   0.0000       0.775786        21.1102 
 200   0.0000       0.777763        21.1640 
 201   0.0000       0.783234        21.3129 
 202   0.0000       0.789460        21.4823 
 203   0.0000       0.791065        21.5260 
 204   0.0000       0.794300        21.6140 
 205   0.0000       0.811467        22.0811 
 206   0.0000       0.813580        22.1386 
 207   0.0000       0.818199        22.2643 
 208   0.0000       0.820212        22.3191 
 209   0.0000       0.832333        22.6489 
 210   0.0000       0.833743        22.6873 
 211   0.0000       0.838006        22.8033 
 212   0.0000       0.840411        22.8688 
 213   0.0000       0.847282        23.0557 
 214   0.0000       0.851004        23.1570 
 215   0.0000       0.860832        23.4244 
 216   0.0000       0.861389        23.4396 
 217   0.0000       0.863803        23.5053 
 218   0.0000       0.868914        23.6444 
 219   0.0000       0.873105        23.7584 
 220   0.0000       0.876372        23.8473 
 221   0.0000       0.880874        23.9698 
 222   0.0000       0.882919        24.0254 
 223   0.0000       0.890299        24.2263 
 224   0.0000       0.894137        24.3307 
 225   0.0000       0.897672        24.4269 
 226   0.0000       0.900843        24.5132 
 227   0.0000       0.910782        24.7836 
 228   0.0000       0.911177        24.7944 
 229   0.0000       0.915189        24.9036 
 230   0.0000       0.920143        25.0384 
 231   0.0000       0.925875        25.1943 
 232   0.0000       0.931048        25.3351 
 233   0.0000       0.933380        25.3986 
 234   0.0000       0.939382        25.5619 
 235   0.0000       0.942620        25.6500 
 236   0.0000       0.948365        25.8063 
 237   0.0000       0.951572        25.8936 
 238   0.0000       0.955906        26.0115 
 239   0.0000       0.957638        26.0587 
 240   0.0000       0.961488        26.1634 
 241   0.0000       0.965915        26.2839 
 242   0.0000       0.974430        26.5156 
 243   0.0000       0.976576        26.5740 
 244   0.0000       0.987045        26.8588 
 245   0.0000       0.990801        26.9611 
 246   0.0000       0.994448        27.0603 
 247   0.0000       0.996378        27.1128 
 248   0.0000       1.004658        27.3381 
 249   0.0000       1.005795        27.3691 
 250   0.0000       1.013620        27.5820 
 251   0.0000       1.018761        27.7219 
 252   0.0000       1.024067        27.8663 
 253   0.0000       1.031629        28.0721 
 254   0.0000       1.034489        28.1499 
 255   0.0000       1.036607        28.2075 
 256   0.0000       1.042208        28.3599 
 257   0.0000       1.045465        28.4486 
 258   0.0000       1.054381        28.6912 
 259   0.0000       1.057175        28.7672 
 260   0.0000       1.060066        28.8459 
 261   0.0000       1.061726        28.8910 
 262   0.0000       1.066758        29.0280 
 263   0.0000       1.070235        29.1226 
 264   0.0000       1.073411        29.2090 
 265   0.0000       1.078713        29.3533 
 266   0.0000       1.083987        29.4968 
 267   0.0000       1.088593        29.6221 
 268   0.0000       1.095575        29.8121 
 269   0.0000       1.096486        29.8369 
 270   0.0000       1.101025        29.9604 
 271   0.0000       1.106408        30.1069 
 272   0.0000       1.112625        30.2761 
 273   0.0000       1.118695        30.4412 
 274   0.0000       1.124700        30.6046 
 275   0.0000       1.130142        30.7527 
 276   0.0000       1.132863        30.8268 
 277   0.0000       1.136101        30.9149 
 278   0.0000       1.140666        31.0391 
 279   0.0000       1.144761        31.1505 
 280   0.0000       1.148312        31.2472 
 281   0.0000       1.150324        31.3019 
 282   0.0000       1.157244        31.4902 
 283   0.0000       1.161714        31.6118 
 284   0.0000       1.165054        31.7027 
 285   0.0000       1.168095        31.7855 
 286   0.0000       1.178437        32.0669 
 287   0.0000       1.181232        32.1430 
 288   0.0000       1.186911        32.2975 
 289   0.0000       1.190399        32.3924 
 290   0.0000       1.191702        32.4279 
 291   0.0000       1.196430        32.5565 
 292   0.0000       1.198188        32.6044 
 293   0.0000       1.206509        32.8308 
 294   0.0000       1.209152        32.9027 
 295   0.0000       1.213692        33.0262 
 296   0.0000       1.219380        33.1810 
 297   0.0000       1.225583        33.3498 
 298   0.0000       1.227456        33.4008 
 299   0.0000       1.229744        33.4630 
 300   0.0000       1.237192        33.6657 
 301   0.0000       1.238335        33.6968 
 302   0.0000       1.246399        33.9162 
 303   0.0000       1.248483        33.9730 
 304   0.0000       1.253519        34.1100 
 305   0.0000       1.254398        34.1339 
 306   0.0000       1.261120        34.3168 
 307   0.0000       1.267715        34.4963 
 308   0.0000       1.271803        34.6075 
 309   0.0000       1.277820        34.7713 
 310   0.0000       1.279007        34.8036 
 311   0.0000       1.287879        35.0450 
 312   0.0000       1.288595        35.0645 
 313   0.0000       1.292794        35.1787 
 314   0.0000       1.298148        35.3244 
 315   0.0000       1.300663        35.3928 
 316   0.0000       1.308741        35.6127 
 317   0.0000       1.312159        35.7056 
 318   0.0000       1.316258        35.8172 
 319   0.0000       1.320461        35.9316 
 320   0.0000       1.325775        36.0762 
 321   0.0000       1.329454        36.1763 
 322   0.0000       1.337586        36.3976 
 323   0.0000       1.341584        36.5064 
 324   0.0000       1.345018        36.5998 
 325   0.0000       1.345895        36.6237 
 326   0.0000       1.353231        36.8233 
 327   0.0000       1.357873        36.9496 
 328   0.0000       1.360747        37.0278 
 329   0.0000       1.366582        37.1866 
 330   0.0000       1.377270        37.4774 
 331   0.0000       1.382097        37.6088 
 332   0.0000       1.383226        37.6395 
 333   0.0000       1.390147        37.8278 
 334   0.0000       1.396795        38.0087 
 335   0.0000       1.401089        38.1256 
 336   0.0000       1.403446        38.1897 
 337   0.0000       1.410010        38.3683 
 338   0.0000       1.413535        38.4642 
 339   0.0000       1.419333        38.6220 
 340   0.0000       1.424311        38.7575 
 341   0.0000       1.428751        38.8783 
 342   0.0000       1.434192        39.0264 
 343   0.0000       1.438621        39.1469 
 344   0.0000       1.440613        39.2011 
 345   0.0000       1.448079        39.4042 
 346   0.0000       1.451753        39.5042 
 347   0.0000       1.458777        39.6953 
 348   0.0000       1.465343        39.8740 
 349   0.0000       1.469329        39.9825 
 350   0.0000       1.479482        40.2587 
 351   0.0000       1.484043        40.3829 
 352   0.0000       1.488893        40.5148 
 353   0.0000       1.498139        40.7664 
 354   0.0000       1.500463        40.8297 
 355   0.0000       1.503306        40.9070 
 356   0.0000       1.511065        41.1182 
 357   0.0000       1.516118        41.2557 
 358   0.0000       1.524966        41.4964 
 359   0.0000       1.534140        41.7461 
 360   0.0000       1.538530        41.8655 
 361   0.0000       1.547105        42.0989 
 362   0.0000       1.553369        42.2693 
 363   0.0000       1.565859        42.6092 
 364   0.0000       1.574520        42.8449 
 365   0.0000       1.586484        43.1704 
 366   0.0000       1.587755        43.2050 
 367   0.0000       1.588950        43.2375 
 368   0.0000       1.601013        43.5658 
 369   0.0000       1.607634        43.7460 
 370   0.0000       1.611172        43.8422 
 371   0.0000       1.622303        44.1451 
 372   0.0000       1.633775        44.4573 
 373   0.0000       1.635812        44.5127 
 374   0.0000       1.647430        44.8289 
 375   0.0000       1.648806        44.8663 
 376   0.0000       1.654013        45.0080 
 377   0.0000       1.670383        45.4534 
 378   0.0000       1.679110        45.6909 
 379   0.0000       1.683987        45.8236 
 380   0.0000       1.690868        46.0109 
 381   0.0000       1.695387        46.1338 
 382   0.0000       1.699780        46.2534 
 383   0.0000       1.709058        46.5058 
 384   0.0000       1.710863        46.5550 
 385   0.0000       1.720927        46.8288 
 386   0.0000       1.724844        46.9354 
 387   0.0000       1.736222        47.2450 
 388   0.0000       1.741920        47.4001 
 389   0.0000       1.749751        47.6131 
 390   0.0000       1.759690        47.8836 
 391   0.0000       1.764362        48.0107 
 392   0.0000       1.769424        48.1485 
 393   0.0000       1.778814        48.4040 
 394   0.0000       1.783391        48.5285 
 395   0.0000       1.787642        48.6442 
 396   0.0000       1.796274        48.8791 
 397   0.0000       1.805729        49.1364 
 398   0.0000       1.807164        49.1754 
 399   0.0000       1.811545        49.2947 
 400   0.0000       1.813081        49.3365 
 401   0.0000       1.817613        49.4598 
 402   0.0000       1.821600        49.5683 
 403   0.0000       1.830847        49.8199 
 404   0.0000       1.837146        49.9913 
 405   0.0000       1.850496        50.3546 
 406   0.0000       1.854863        50.4734 
 407   0.0000       1.861154        50.6446 
 408   0.0000       1.864999        50.7492 
 409   0.0000       1.874672        51.0124 
 410   0.0000       1.880152        51.1615 
 411   0.0000       1.893222        51.5172 
 412   0.0000       1.898878        51.6711 
 413   0.0000       1.900351        51.7112 
 414   0.0000       1.905067        51.8395 
 415   0.0000       1.912004        52.0283 
 416   0.0000       1.918041        52.1926 
 417   0.0000       1.924074        52.3567 
 418   0.0000       1.930455        52.5304 
 419   0.0000       1.944143        52.9028 
 420   0.0000       1.948092        53.0103 
 421   0.0000       1.952518        53.1307 
 422   0.0000       1.955282        53.2059 
 423   0.0000       1.963558        53.4311 
 424   0.0000       1.967272        53.5322 
 425   0.0000       1.969297        53.5873 
 426   0.0000       1.973334        53.6971 
 427   0.0000       1.984592        54.0035 
 428   0.0000       1.996054        54.3154 
 429   0.0000       1.997999        54.3683 
 430   0.0000       2.004469        54.5444 
 431   0.0000       2.008647        54.6581 
 432   0.0000       2.015410        54.8421 
 433   0.0000       2.017703        54.9045 
 434   0.0000       2.023557        55.0638 
 435   0.0000       2.027883        55.1815 
 436   0.0000       2.029758        55.2325 
 437   0.0000       2.040734        55.5312 
 438   0.0000       2.048730        55.7488 
 439   0.0000       2.053545        55.8798 
 440   0.0000       2.060962        56.0816 
 441   0.0000       2.061708        56.1019 
 442   0.0000       2.062850        56.1330 
 443   0.0000       2.073317        56.4178 
 444   0.0000       2.078582        56.5611 
 445   0.0000       2.081193        56.6321 
 446   0.0000       2.085228        56.7419 
 447   0.0000       2.092353        56.9358 
 448   0.0000       2.096634        57.0523 
 449   0.0000       2.098184        57.0945 
 450   0.0000       2.103784        57.2469 
 451   0.0000       2.107598        57.3506 
 452   0.0000       2.115279        57.5597 
 453   0.0000       2.119172        57.6656 
 454   0.0000       2.128172        57.9105 
 455   0.0000       2.129693        57.9519 
 456   0.0000       2.131701        58.0065 
 457   0.0000       2.137738        58.1708 
 458   0.0000       2.142190        58.2920 
 459   0.0000       2.146553        58.4107 
 460   0.0000       2.153464        58.5987 
 461   0.0000       2.157112        58.6980 
 462   0.0000       2.160460        58.7891 
 463   0.0000       2.165105        58.9155 
 464   0.0000       2.170168        59.0533 
 465   0.0000       2.175061        59.1864 
 466   0.0000       2.183657        59.4203 
 467   0.0000       2.185849        59.4800 
 468   0.0000       2.187070        59.5132 
 469   0.0000       2.195362        59.7388 
 470   0.0000       2.203952        59.9726 
 471   0.0000       2.211296        60.1724 
 472   0.0000       2.214447        60.2582 
 473   0.0000       2.219791        60.4036 
 474   0.0000       2.223751        60.5113 
 475   0.0000       2.229388        60.6647 
 476   0.0000       2.233864        60.7865 
 477   0.0000       2.238601        60.9154 
 478   0.0000       2.244334        61.0714 
 479   0.0000       2.251459        61.2653 
 480   0.0000       2.254604        61.3509 
 481   0.0000       2.258689        61.4620 
 482   0.0000       2.266734        61.6810 
 483   0.0000       2.272056        61.8258 
 484   0.0000       2.273965        61.8777 
 485   0.0000       2.275489        61.9192 
 486   0.0000       2.281399        62.0800 
 487   0.0000       2.283944        62.1493 
 488   0.0000       2.289768        62.3078 
 489   0.0000       2.291996        62.3684 
 490   0.0000       2.296345        62.4867 
 491   0.0000       2.304053        62.6965 
 492   0.0000       2.313028        62.9407 
 493   0.0000       2.318267        63.0832 
 494   0.0000       2.322867        63.2084 
 495   0.0000       2.324130        63.2428 
 496   0.0000       2.327136        63.3246 
 497   0.0000       2.330505        63.4163 
 498   0.0000       2.334868        63.5350 
 499   0.0000       2.336208        63.5714 
 500   0.0000       2.338516        63.6342 
 501   0.0000       2.342608        63.7456 
 502   0.0000       2.345834        63.8334 
 503   0.0000       2.350837        63.9695 
 504   0.0000       2.362323        64.2821 
 505   0.0000       2.363096        64.3031 
 506   0.0000       2.373789        64.5941 
 507   0.0000       2.374990        64.6268 
 508   0.0000       2.382995        64.8446 
 509   0.0000       2.387231        64.9599 
 510   0.0000       2.393347        65.1263 
 511   0.0000       2.402067        65.3636 
 512   0.0000       2.403880        65.4129 
 513   0.0000       2.409901        65.5767 
 514   0.0000       2.412992        65.6608 
 515   0.0000       2.416038        65.7437 
 516   0.0000       2.419048        65.8256 
 517   0.0000       2.429553        66.1115 
 518   0.0000       2.433771        66.2263 
 519   0.0000       2.437631        66.3313 
 520   0.0000       2.440699        66.4148 
 521   0.0000       2.443893        66.5017 
 522   0.0000       2.446146        66.5630 
 523   0.0000       2.449688        66.6594 
 524   0.0000       2.453147        66.7535 
 525   0.0000       2.454826        66.7992 
 526   0.0000       2.463110        67.0246 
 527   0.0000       2.465549        67.0910 
 528   0.0000       2.471703        67.2585 
 529   0.0000       2.476984        67.4022 
 530   0.0000       2.482475        67.5516 
 531   0.0000       2.486530        67.6619 
 532   0.0000       2.490683        67.7749 
 533   0.0000       2.494496        67.8787 
 534   0.0000       2.503623        68.1270 
 535   0.0000       2.507568        68.2344 
 536   0.0000       2.512605        68.3714 
 537   0.0000       2.518604        68.5347 
 538   0.0000       2.522141        68.6310 
 539   0.0000       2.525177        68.7136 
 540   0.0000       2.539451        69.1020 
 541   0.0000       2.544503        69.2394 
 542   0.0000       2.546839        69.3030 
 543   0.0000       2.549668        69.3800 
 544   0.0000       2.553532        69.4851 
 545   0.0000       2.556366        69.5623 
 546   0.0000       2.564178        69.7748 
 547   0.0000       2.568403        69.8898 
 548   0.0000       2.570423        69.9448 
 549   0.0000       2.573696        70.0338 
 550   0.0000       2.575014        70.0697 
 551   0.0000       2.580712        70.2248 
 552   0.0000       2.587930        70.4212 
 553   0.0000       2.596134        70.6444 
 554   0.0000       2.603485        70.8444 
 555   0.0000       2.610191        71.0269 
 556   0.0000       2.614518        71.1447 
 557   0.0000       2.616231        71.1913 
 558   0.0000       2.619000        71.2666 
 559   0.0000       2.621908        71.3457 
 560   0.0000       2.631130        71.5967 
 561   0.0000       2.631699        71.6122 
 562   0.0000       2.637421        71.7679 
 563   0.0000       2.647477        72.0415 
 564   0.0000       2.651239        72.1439 
 565   0.0000       2.655275        72.2537 
 566   0.0000       2.656508        72.2873 
 567   0.0000       2.663248        72.4706 
 568   0.0000       2.667786        72.5941 
 569   0.0000       2.672089        72.7112 
 570   0.0000       2.679295        72.9073 
 571   0.0000       2.681540        72.9684 
 572   0.0000       2.688629        73.1613 
 573   0.0000       2.692660        73.2710 
 574   0.0000       2.697287        73.3969 
 575   0.0000       2.700047        73.4720 
 576   0.0000       2.708387        73.6990 
 577   0.0000       2.713224        73.8306 
 578   0.0000       2.716616        73.9229 
 579   0.0000       2.719978        74.0144 
 580   0.0000       2.727900        74.2299 
 581   0.0000       2.733930        74.3940 
 582   0.0000       2.740250        74.5660 
 583   0.0000       2.747409        74.7608 
 584   0.0000       2.748284        74.7846 
 585   0.0000       2.750864        74.8548 
 586   0.0000       2.756464        75.0072 
 587   0.0000       2.761457        75.1431 
 588   0.0000       2.763216        75.1909 
 589   0.0000       2.764705        75.2314 
 590   0.0000       2.772853        75.4532 
 591   0.0000       2.779913        75.6453 
 592   0.0000       2.783997        75.7564 
 593   0.0000       2.787745        75.8584 
 594   0.0000       2.794017        76.0291 
 595   0.0000       2.801484        76.2322 
 596   0.0000       2.803505        76.2873 
 597   0.0000       2.807150        76.3864 
 598   0.0000       2.811081        76.4934 
 599   0.0000       2.814349        76.5823 
 600   0.0000       2.821614        76.7800 
 601   0.0000       2.823474        76.8306 
 602   0.0000       2.826880        76.9233 
 603   0.0000       2.830520        77.0224 
 604   0.0000       2.833288        77.0977 
 605   0.0000       2.836866        77.1950 
 606   0.0000       2.842383        77.3452 
 607   0.0000       2.849272        77.5326 
 608   0.0000       2.853765        77.6549 
 609   0.0000       2.859666        77.8155 
 610   0.0000       2.867020        78.0156 
 611   0.0000       2.870565        78.1121 
 612   0.0000       2.873415        78.1896 
 613   0.0000       2.880730        78.3886 
 614   0.0000       2.883900        78.4749 
 615   0.0000       2.886821        78.5544 
 616   0.0000       2.890828        78.6634 
 617   0.0000       2.902167        78.9720 
 618   0.0000       2.904659        79.0398 
 619   0.0000       2.909032        79.1588 
 620   0.0000       2.911589        79.2284 
 621   0.0000       2.914591        79.3101 
 622   0.0000       2.918269        79.4101 
 623   0.0000       2.928979        79.7016 
 624   0.0000       2.930673        79.7477 
 625   0.0000       2.936974        79.9191 
 626   0.0000       2.941790        80.0502 
 627   0.0000       2.944975        80.1368 
 628   0.0000       2.954046        80.3837 
 629   0.0000       2.958991        80.5182 
 630   0.0000       2.965447        80.6939 
 631   0.0000       2.968303        80.7716 
 632   0.0000       2.969016        80.7910 
 633   0.0000       2.978161        81.0399 
 634   0.0000       2.985090        81.2284 
 635   0.0000       2.988469        81.3204 
 636   0.0000       2.992777        81.4376 
 637   0.0000       2.997368        81.5625 
 638   0.0000       3.000133        81.6378 
 639   0.0000       3.004372        81.7531 
 640   0.0000       3.011155        81.9377 
 641   0.0000       3.018843        82.1469 
 642   0.0000       3.026701        82.3607 
 643   0.0000       3.033983        82.5589 
 644   0.0000       3.037071        82.6429 
 645   0.0000       3.042072        82.7790 
 646   0.0000       3.046087        82.8882 
 647   0.0000       3.049988        82.9944 
 648   0.0000       3.053528        83.0907 
 649   0.0000       3.058057        83.2140 
 650   0.0000       3.068310        83.4930 
 651   0.0000       3.074563        83.6631 
 652   0.0000       3.078739        83.7767 
 653   0.0000       3.081915        83.8632 
 654   0.0000       3.084333        83.9290 
 655   0.0000       3.089451        84.0682 
 656   0.0000       3.092354        84.1472 
 657   0.0000       3.104120        84.4674 
 658   0.0000       3.106799        84.5403 
 659   0.0000       3.108707        84.5922 
 660   0.0000       3.117982        84.8446 
 661   0.0000       3.126170        85.0674 
 662   0.0000       3.135370        85.3178 
 663   0.0000       3.140500        85.4573 
 664   0.0000       3.143308        85.5337 
 665   0.0000       3.149539        85.7033 
 666   0.0000       3.153541        85.8122 
 667   0.0000       3.164602        86.1132 
 668   0.0000       3.167426        86.1900 
 669   0.0000       3.169887        86.2570 
 670   0.0000       3.174426        86.3805 
 671   0.0000       3.181932        86.5848 
 672   0.0000       3.183004        86.6139 
 673   0.0000       3.186270        86.7028 
 674   0.0000       3.192278        86.8663 
 675   0.0000       3.196352        86.9772 
 676   0.0000       3.206718        87.2592 
 677   0.0000       3.211839        87.3986 
 678   0.0000       3.219574        87.6091 
 679   0.0000       3.224012        87.7298 
 680   0.0000       3.225966        87.7830 
 681   0.0000       3.232411        87.9584 
 682   0.0000       3.238236        88.1169 
 683   0.0000       3.240322        88.1736 
 684   0.0000       3.246048        88.3295 
 685   0.0000       3.249974        88.4363 
 686   0.0000       3.256152        88.6044 
 687   0.0000       3.258042        88.6558 
 688   0.0000       3.272313        89.0442 
 689   0.0000       3.279306        89.2344 
 690   0.0000       3.287008        89.4440 
 691   0.0000       3.292968        89.6062 
 692   0.0000       3.296995        89.7158 
 693   0.0000       3.300904        89.8222 
 694   0.0000       3.308264        90.0225 
 695   0.0000       3.313159        90.1556 
 696   0.0000       3.317364        90.2701 
 697   0.0000       3.323732        90.4433 
 698   0.0000       3.329262        90.5938 
 699   0.0000       3.332158        90.6726 
 700   0.0000       3.336437        90.7891 
 701   0.0000       3.346881        91.0733 
 702   0.0000       3.347971        91.1029 
 703   0.0000       3.354491        91.2804 
 704   0.0000       3.362900        91.5092 
 705   0.0000       3.374272        91.8186 
 706   0.0000       3.379037        91.9483 
 707   0.0000       3.389213        92.2252 
 708   0.0000       3.395016        92.3831 
 709   0.0000       3.400886        92.5428 
 710   0.0000       3.411799        92.8398 
 711   0.0000       3.416838        92.9769 
 712   0.0000       3.422095        93.1199 
 713   0.0000       3.425532        93.2135 
 714   0.0000       3.432781        93.4107 
 715   0.0000       3.435178        93.4759 
 716   0.0000       3.435947        93.4969 
 717   0.0000       3.443408        93.6999 
 718   0.0000       3.444633        93.7332 
 719   0.0000       3.455488        94.0286 
 720   0.0000       3.459791        94.1457 
 721   0.0000       3.464481        94.2733 
 722   0.0000       3.472896        94.5023 
 723   0.0000       3.477982        94.6407 
 724   0.0000       3.485623        94.8486 
 725   0.0000       3.493141        95.0532 
 726   0.0000       3.498144        95.1893 
 727   0.0000       3.503800        95.3432 
 728   0.0000       3.506423        95.4146 
 729   0.0000       3.520084        95.7863 
 730   0.0000       3.523101        95.8685 
 731   0.0000       3.528882        96.0258 
 732   0.0000       3.535023        96.1929 
 733   0.0000       3.536787        96.2409 
 734   0.0000       3.548203        96.5515 
 735   0.0000       3.549420        96.5846 
 736   0.0000       3.555205        96.7421 
 737   0.0000       3.558543        96.8329 
 738   0.0000       3.563948        96.9799 
 739   0.0000       3.568257        97.0972 
 740   0.0000       3.576089        97.3103 
 741   0.0000       3.585287        97.5606 
 742   0.0000       3.589477        97.6746 
 743   0.0000       3.596920        97.8772 
 744   0.0000       3.599979        97.9604 
 745   0.0000       3.608616        98.1954 
 746   0.0000       3.610051        98.2345 
 747   0.0000       3.615208        98.3748 
 748   0.0000       3.617537        98.4382 
 749   0.0000       3.629082        98.7523 
 750   0.0000       3.638661        99.0130 
 751   0.0000       3.642504        99.1176 
 752   0.0000       3.653456        99.4156 
 753   0.0000       3.661936        99.6463 
 754   0.0000       3.670662        99.8838 
 755   0.0000       3.676003       100.0291 
 756   0.0000       3.684062       100.2484 
 757   0.0000       3.690570       100.4255 
 758   0.0000       3.698517       100.6418 
 759   0.0000       3.701156       100.7136 
 760   0.0000       3.708989       100.9267 
 761   0.0000       3.716679       101.1360 
 762   0.0000       3.720550       101.2413 
 763   0.0000       3.728069       101.4459 
 764   0.0000       3.737439       101.7009 
 765   0.0000       3.742525       101.8393 
 766   0.0000       3.749817       102.0377 
 767   0.0000       3.752531       102.1115 
 768   0.0000       3.763487       102.4097 
 769   0.0000       3.767061       102.5069 
 770   0.0000       3.780802       102.8808 
 771   0.0000       3.783996       102.9678 
 772   0.0000       3.789417       103.1153 
 773   0.0000       3.796478       103.3074 
 774   0.0000       3.804861       103.5355 
 775   0.0000       3.809131       103.6517 
 776   0.0000       3.813764       103.7778 
 777   0.0000       3.824496       104.0698 
 778   0.0000       3.824995       104.0834 
 779   0.0000       3.835131       104.3592 
 780   0.0000       3.838192       104.4425 
 781   0.0000       3.849303       104.7449 
 782   0.0000       3.853530       104.8599 
 783   0.0000       3.859709       105.0280 
 784   0.0000       3.867714       105.2458 
 785   0.0000       3.872605       105.3789 
 786   0.0000       3.875914       105.4690 
 787   0.0000       3.880015       105.5806 
 788   0.0000       3.882868       105.6582 
 789   0.0000       3.897884       106.0668 
 790   0.0000       3.899825       106.1196 
 791   0.0000       3.904728       106.2531 
 792   0.0000       3.914347       106.5148 
 793   0.0000       3.922270       106.7304 
 794   0.0000       3.925303       106.8129 
 795   0.0000       3.930097       106.9434 
 796   0.0000       3.937086       107.1336 
 797   0.0000       3.945840       107.3718 
 798   0.0000       3.946402       107.3871 
 799   0.0000       3.951233       107.5185 
 800   0.0000       3.967363       107.9574 
 801   0.0000       3.969450       108.0142 
 802   0.0000       3.977712       108.2390 
 803   0.0000       3.982871       108.3794 
 804   0.0000       3.988078       108.5211 
 805   0.0000       3.989637       108.5635 
 806   0.0000       4.001296       108.8808 
 807   0.0000       4.011009       109.1451 
 808   0.0000       4.013532       109.2138 
 809   0.0000       4.018202       109.3408 
 810   0.0000       4.023390       109.4820 
[...]
    TCutPNOSingles     =        3.000e-09
    TCutMP2Pairs       =        1.000e-06
    TCutMKN            =        1.000e-03
    TCutDO             =        5.000e-03

Pair selection                          .... not used
Type of local MP2 treatment                 .... full local PMP2
Strategy for PNO selection                  .... occupation number selection
Pair density normalization                  .... MP2 norm
Spin component scaling                      .... not used

PASS-1: Formation of initial guess LMP2 amplitudes
Initial amplitudes guess done. Entering LMP2 iteration loop:
   Max. no of iterations          ...  50
   Energy convergence tolerance   ...    1.0e-07
   Residual convergence tolerance ...    5.0e-07
   Fock matrix cutoff             ...    1.0e-05 Eh
   DIIS convergence acceleration parameters:
        Max # vectors in DIIS     ... 7
        Start iteration of DIIS   ... 0
        Levelshift                ... 2.000e-01
        Damping factor 1          ... 5.000e-01
        Damping factor 2          ... 1.000e+00
   L-MP2 PNO cut-off              ...   1.0e-09
   L-MP2 PNO cut-off (core)       ...   1.0e-11
                           *** Turning on DIIS ***
LMP2-Iter=   0:  ELMP2= -4.577097786396  DE=   1.1e-01 RMAX=   1.2e-02
LMP2-Iter=   1:  ELMP2= -4.632832534023  DE=   5.6e-02 RMAX=   5.9e-03
LMP2-Iter=   2:  ELMP2= -4.644240230006  DE=   1.1e-02 RMAX=   2.4e-03
LMP2-Iter=   3:  ELMP2= -4.645884828290  DE=   1.6e-03 RMAX=   9.3e-04
LMP2-Iter=   4:  ELMP2= -4.645922196564  DE=   3.7e-05 RMAX=   2.9e-04
LMP2-Iter=   5:  ELMP2= -4.645880887267  DE=   4.1e-05 RMAX=   9.0e-05
LMP2-Iter=   6:  ELMP2= -4.645874423882  DE=   6.5e-06 RMAX=   2.5e-05
LMP2-Iter=   7:  ELMP2= -4.645875765658  DE=   1.3e-06 RMAX=   8.0e-06
LMP2-Iter=   8:  ELMP2= -4.645876520346  DE=   7.5e-07 RMAX=   2.2e-06
LMP2-Iter=   9:  ELMP2= -4.645876463355  DE=   5.7e-08 RMAX=   6.0e-07
LMP2-Iter=  10:  ELMP2= -4.645876450443  DE=   1.3e-08 RMAX=   1.4e-07
LMP2-Iter=  11:  ELMP2= -4.645876414673  DE=   3.6e-08 RMAX=   4.6e-08 => CONVERGED
PASS-2: Formation of Pair natural orbitals
   .... Finished loop over pairs

 PNO Occupation Number Statistics: 
  | Av. % of trace(Dij) retained        ...  97.861882438319
  | sigma^2 in % of trace(Dij) retained ...   8.15e+00
  | Av. % of trace(Di) retained         ...  99.999506135545
  | sigma^2 in % of trace(Di) retained  ...   1.99e-08
 Distributions of % trace(Dij) recovered:
  |       >= 99.9  ...   204 ( 11.2 % of all pairs)
  |   [70.0, 80.0) ...     5 (  0.3 % of all pairs)
  |   [80.0, 90.0) ...    64 (  3.5 % of all pairs)
  |   [90.0, 99.0) ...  1036 ( 56.8 % of all pairs)
  |   [99.0, 99.9) ...   516 ( 28.3 % of all pairs)
 Distributions of % trace(Di) recovered :
  |       >= 99.9  ...    64 (100.0 % of all I-pairs )

Making pair pair interaction lists          ... done

                       ===========================
                       1290 OF 1825 PAIRS ARE KEPT
                       ===========================

Total time spent in the initial guess                 ...  2867.175 sec
L-MP2 correlation energy (all non-screened pairs)     ...      -4.645876414673 Eh
L-MP2 PNO error correction                            ...      -0.000366555143 Eh
                                                          --------------------
Initial total L-MP2 energy (non-screened pairs)       ...      -4.646242969816 Eh

Initial PNO correlation energy                        ...      -4.634161054604 Eh
sum of pair energies estimated for screened out pairs ...      -0.000105373810 Eh
sum of MP2 pair energies for pairs that were not kept ...      -0.002742557106 Eh
sum of PNO error estimates for the kept pairs         ...      -0.009958014874 Eh
                                                          --------------------
sum of all corrections                                         -0.012805945790
Initial total correlation energy                               -4.646967000394
Thresholds for map construction and integral transformation for fine MP2 and CCSD(T) calculation:
   TCutMKN   ...     1.0e-03
   TCutDO    ...     5.0e-03
   TCutPairs ...     1.0e-05
   TCutCMO   ...     1.0e-03
   TCutCPAO  ...     1.0e-03

Time for aux screen maps:            0.033
Time for maps after fine MP2:            0.254
-----------------------------
LOCAL RI TRANSFORMATION (IJV)
-----------------------------

Orbital window:      23 to 86
Basis functions:   1865 (545 shells)
Aux. functions:    4136 (990 shells)
Use SHARK:           on

Processing maps (0.0 sec)
Average map sizes:
   Aux shells -> MOs(i)           57.8
   Aux shells -> MOs(j)           64.0
   MOs        -> AO shells       483.0

Calculating integrals (15.5 sec, 117.180 MB)
Sorting integrals (0.6 sec, 117.134 MB)
Total time for the integral transformation: 16.1 sec
--------------------------------
LOCAL RI TRANSFORMATION (VABPAO)
--------------------------------

Number of PAOs:    1865
Basis functions:   1865 (545 shells)
Aux. functions:    4136 (990 shells)
Use SHARK:           on

Processing maps (0.0 sec)
Average map sizes:
   Aux shells -> PAOs           1852.0
   PAOs       -> AO shells       533.9

Calculating integrals (465.5 sec, 108271.831 MB)
Finished


-------------------------------------
Pair Pair Term precalculation with     
RI-(ij|mn) and (im|jn) transformation  
ON THE FLY                             
-------------------------------------

   IBatch   1 (of   6)              ... done (  647.285 sec)
   IBatch   2 (of   6)              ... done (  767.925 sec)
   IBatch   3 (of   6)              ... done (  818.828 sec)
   IBatch   4 (of   6)              ... done (  961.550 sec)
   IBatch   5 (of   6)              ... done ( 1313.607 sec)
   IBatch   6 (of   6)              ... done (  832.327 sec)
Total EXT                           ...        5341.523 sec

---------------------
RI-PNO TRANSFORMATION
---------------------

Total Number of PNOs                   ... 45706
Average number of PNOs per pair        ...    35
Maximal number of PNOs per pair        ...   131
   #pairs with  1 -  5 PNOs   :    0
   #pairs with  6 - 10 PNOs   :  293
   #pairs with 11 - 15 PNOs   :  171
   #pairs with 16 - 20 PNOs   :   94
   #pairs with 21 - 25 PNOs   :   88
   #pairs with 26 - 30 PNOs   :   92
   #pairs with 31 - 35 PNOs   :   59
   #pairs with 36 - 40 PNOs   :   43
   #pairs with 41 - 45 PNOs   :   38
   #pairs with 46 - 50 PNOs   :   41
   #pairs with 51 - 55 PNOs   :   53
   #pairs with 56 - 60 PNOs   :   49
   #pairs with 61 - 65 PNOs   :   30
   #pairs with 66 - 70 PNOs   :   21
   #pairs with 71 - 75 PNOs   :   16
   #pairs with 76 - 80 PNOs   :   51
   #pairs with 81 - 85 PNOs   :   43
   #pairs with 86 - 90 PNOs   :   31
   #pairs with 91 - 95 PNOs   :   44
   #pairs with > 96 PNOs      :   33

Generation of (ij|ab)[P] integrals            ... on
Generation of (ia|bc)[P],(ja|bc)[P] integrals ... on
Storage of 3 and 4 external integrals         ... on
Generation of ALL (ka|bc)[P] integrals        ... on
Keep RI integrals in memory                   ... off

Ibatch:  1 (of  1)
Starting 2-4 index PNO integral generation ... done

Timings:
Total PNO integral transformation time     ...       3367.915 sec
Size of the 3-external file                ...      1497 MB
Size of the 4-external file                ...     15253 MB
Size of the IKJL file                      ...         0 MB
Size of the all 3-external file            ...     45166 MB
Size of the 1-external file                ...        64 MB

Making pair/pair overlap matrices          ... done (  813.120 sec)
Size of the pair overlap file              ... 10976 MB
Redoing the guess amplitudes               ... done (    0.157 sec)

-------------------------
FINAL STARTUP INFORMATION
-------------------------

E(0)                                       ...  -1154.714251772
E(L-MP2)                                   ...     -4.646242970
E(L-MP2) including corrections             ...     -4.646967000
Initial E(tot)                             ...  -1159.361218773
<T|T>                                      ...      1.141382361
Number of pairs included                   ... 1290
Total number of pairs                      ... 2080

------------------------------------------------
                  RHF COUPLED CLUSTER ITERATIONS
------------------------------------------------

Number of PNO amplitudes to be optimized   ...      2662308
Number of non-PNO amplitudes               ...   4078056360
Untruncated number of regular amplitudes   ...   6575470720

Iter       E(tot)           E(Corr)          Delta-E          Residual     Time
  0  -1159.184361670     -4.457303952      0.188939018      0.017022817 2642.04
                           *** Turning on DIIS ***
  1  -1159.244083469     -4.517025751     -0.059721799      0.009430381 2641.07
  2  -1159.343958133     -4.616900415     -0.099874664      0.004686002 2645.88
  3  -1159.367912447     -4.640854729     -0.023954314      0.002711791 2658.95
  4  -1159.375148939     -4.648091221     -0.007236492      0.001611219 2762.27
  5  -1159.377574631     -4.650516913     -0.002425692      0.000788088 2666.64
  6  -1159.378176364     -4.651118646     -0.000601733      0.000365336 2693.58
  7  -1159.378313175     -4.651255456     -0.000136810      0.000178156 2594.63
  8  -1159.378343733     -4.651286014     -0.000030558      0.000094509 2432.60
  9  -1159.378321284     -4.651263566      0.000022448      0.000044524 2519.76
 10  -1159.378328357     -4.651270639     -0.000007073      0.000022572 2458.18
 11  -1159.378325920     -4.651268202      0.000002437      0.000011062 2443.51
 12  -1159.378324461     -4.651266742      0.000001460      0.000006284 2397.78
               --- The Coupled-Cluster iterations have converged ---

----------------------
COUPLED CLUSTER ENERGY
----------------------

E(0)                                       ...  -1154.714251772
E(CORR)(strong-pairs)                      ...     -4.651266742
E(CORR)(weak-pairs)                        ...     -0.012805946
E(CORR)(corrected)                         ...     -4.664072688
E(TOT)                                     ...  -1159.378324461
Singles Norm <S|S>**1/2                    ...      0.159529034  
T1 diagnostic                              ...      0.014100508  

------------------
LARGEST AMPLITUDES
------------------
  70-> 87  70-> 87       0.046945
  65-> 87  65-> 87       0.045037
  74-> 87  74-> 87       0.044845
  73-> 87  73-> 87       0.042472
  57-> 87  57-> 87       0.040169
  69-> 87  69-> 87       0.040028
  76-> 89  76-> 89       0.039562
  46-> 87  46-> 87       0.039466
  59-> 87  59-> 87       0.037496
  70-> 87  69-> 87       0.037107
  74-> 87  73-> 87       0.036943
  48-> 89  48-> 89       0.036925
  52-> 87  52-> 87       0.036037
  43-> 87  43-> 87       0.035316
  61-> 87  61-> 87       0.034794
  80-> 87  80-> 87       0.033914


-------------------------------------------
DLPNO BASED TRIPLES CORRECTION
-------------------------------------------

Singles multiplier          ...  1.000000
TCutTNO                     ... 1.000e-09
TCutMP2Pairs                ... 1.000e-06
TCutDOStrong                ... 1.000e-02
TCutMKNStrong               ... 1.000e-02
TCutDOWeak                  ... 2.000e-02
TCutMKNWeak                 ... 1.000e-01

Fragment selection                          .... not used
Fock matrix occ-virt block is zero --> Setting DT_in_Triples to false.
Number of Triples that are to be computed   ...     24811

 . . . . . . . . .
10% done               (   7656.698 sec)
 . . . . . . . . .
20% done  
30% done  
40% done               (  10848.085 sec)
 . . . . . . . . .
50% done  
60% done  
70% done  
80% done               (  17681.910 sec)
 . . . . . . . . .
90% done               (   3680.844 sec)
Triples timings:
Total time for T0               ... 44638.922 sec
Total time for Iterative (T)    ...     0.000 sec
Total time of overall (T)       ... 44885.063 sec

Triples List generation         ...     0.000 sec
TNO generation                  ...  4770.658 sec
Pair density generation         ...     0.064 sec
Look up tables                  ...     0.000 sec
Generating 3-index integrals    ... 33682.749 sec
  Make 4-ind.int. from 3-ind.int...   349.559 sec
  Projecting amplitudes (D + S) ...  5559.168 sec
  Downprojecting integrals      ...     0.014 sec
  Energy contr. (sum over a,b,c)...    18.306 sec
Fitting ET(->0)                 ...     0.000 sec

Everything after 3-index        ...  6184.788 sec

Timing details:
 TNO integrals                  ... 34017.390 sec
   Reading 3-index integrals    ...   835.814 sec
   Sorting integrals            ...  2647.210 sec
       Sorting integrals 1      ...     0.013 sec
       Sorting integrals 2      ...  2610.581 sec
       Sorting integrals 3      ...     9.538 sec
       Sorting integrals 4      ...     0.845 sec
       Sorting integrals 5      ...     7.742 sec
       Sorting integrals 6      ...    18.490 sec
   Calculating local VM**-1/2   ...    28.418 sec
   Orthogonal. integrals        ...    41.236 sec
   Multipl. 3-index integrals   ... 30464.712 sec
   All concerning IRIab (w/TNO) ...   250.329 sec

 Calculate W0/W1                ...   257.660 sec
 W 3-ext contribution           ...   168.904 sec
 W 3-int contribution           ...    69.577 sec
 Sorting W                      ...    16.916 sec

 V exchange contribution        ...     4.992 sec

 Timings for Triples without generation
     of 3-index integrals       ...  6184.770 sec
       0 weak pairs             ...  4674.865 sec
       1 weak pair              ...  1509.905 sec
       2 weak pairs             ...     0.000 sec
       3 weak pairs             ...     0.000 sec
  Extra time for extrapolation  ...     0.000 sec

Number of Triples   (0, 1, 2, 3 weak pairs; overall):  15138    9673       0       0  ( 24811)
Number of Atoms     (0, 1, 2, 3 weak pairs; overall):   27.4    25.5     0.0     0.0  (    43)
Number of PAOs      (0, 1, 2, 3 weak pairs; overall): 1238.4  1159.9     0.0     0.0  (  1865)
Number of AuxFcns   (0, 1, 2, 3 weak pairs; overall):  904.5   632.4     0.0     0.0  (  4136)
Number of TNOs      (0, 1, 2, 3 weak pairs         ):  101.3    55.9     0.0     0.0
Aver. Number of NTNO, Atoms, PAOs, AuxFcns / Triples:  24811    83.6    26.6  1207.8   798.5

Triples Correction (T)                     ...     -0.217069407
Final correlation energy                   ...     -4.881142095
E(CCSD)                                    ...  -1159.378324461
E(CCSD(T))                                 ...  -1159.595393868



--------------------------------------------------------------------------------
                                    TIMINGS
--------------------------------------------------------------------------------


Total execution time                   ...    93419.931 sec

Localization of occupied MO's          ...       39.339 sec (  0.0%)
Fock Matrix Formation                  ...      405.446 sec (  0.4%)
Global overlap, Fock, MKN matrices     ...       15.979 sec (  0.0%)
Differential overlap integrals         ...        5.572 sec (  0.0%)
Organizing maps                        ...        0.666 sec (  0.0%)
RI 3-index integral generations        ...      562.701 sec (  0.6%)
RI-PNO integral transformation         ...    10401.828 sec ( 11.1%)
Initial Guess                          ...     3543.281 sec (  3.8%)
DIIS Solver                            ...       86.787 sec (  0.1%)
State Vector Update                    ...        0.306 sec (  0.0%)
Sigma-vector construction              ...    33535.724 sec ( 35.9%)
  <0|H|D>                              ...        0.002 sec (  0.0% of sigma)
  <D|H|D>(0-ext)                       ...     8071.530 sec ( 24.1% of sigma)
  <D|H|D>(2-ext Fock)                  ...        2.641 sec (  0.0% of sigma)
  <D|H|D>(2-ext)                       ...     2440.925 sec (  7.3% of sigma)
  <D|H|D>(4-ext)                       ...      125.355 sec (  0.4% of sigma)
  <D|H|D>(4-ext-corr)                  ...      673.728 sec (  2.0% of sigma)
  CCSD doubles correction              ...      526.738 sec (  1.6% of sigma)
  <S|H|S>                              ...      108.630 sec (  0.3% of sigma)
  <S|H|D>(1-ext)                       ...       20.490 sec (  0.1% of sigma)
  <D|H|S>(1-ext)                       ...        2.804 sec (  0.0% of sigma)
  <S|H|D>(3-ext)                       ...       21.212 sec (  0.1% of sigma)
  CCSD singles correction              ...        0.003 sec (  0.0% of sigma)
  Fock-dressing                        ...     9381.383 sec ( 28.0% of sigma)
  Singles amplitudes                   ...      279.004 sec (  0.8% of sigma)
  (ik|jl)-dressing                     ...     9678.433 sec ( 28.9% of sigma)
  (ij|ab),(ia|jb)-dressing             ...     1630.969 sec (  4.9% of sigma)
  Pair energies                        ...        0.067 sec (  0.0% of sigma)
Total Time for computing (T)           ...    44885.141 sec ( 48.0% of ALL)


Maximum memory used throughout the entire MDCI-calculation: 10188.2 MB

-------------------------   --------------------
FINAL SINGLE POINT ENERGY     -1159.595393867816
-------------------------   --------------------


                            ***************************************
                            *     ORCA property calculations      *
                            ***************************************


  WARNING: The energy has been calculated at the MDCI level but the densities
           used in the property calculations are still SCF densities
           MDCI response densities have not been calculated 
           use %mdci Density linearized end
           or  %mdci Density unrelaxed end
           or  %mdci Density orbopt end

                                    ---------------------
                                    Active property flags
                                    ---------------------
   (+) Dipole Moment


------------------------------------------------------------------------------
                       ORCA ELECTRIC PROPERTIES CALCULATION
------------------------------------------------------------------------------

Dipole Moment Calculation                       ... on
Quadrupole Moment Calculation                   ... off
Polarizability Calculation                      ... off
GBWName                                         ... input.gbw
Electron density                                ... input.scfp
The origin for moment calculation is the CENTER OF MASS  = (20.305077, 17.760989 17.227787)

-------------
DIPOLE MOMENT
-------------
                                X             Y             Z
Electronic contribution:     21.84651      -9.68593       0.48902
Nuclear contribution   :    -31.58108      12.62353       4.98835
                        -----------------------------------------
Total Dipole Moment    :     -9.73457       2.93760       5.47737
                        -----------------------------------------
Magnitude (a.u.)       :     11.54958
Magnitude (Debye)      :     29.35671



--------------------
Rotational spectrum 
--------------------
 
Rotational constants in cm-1:     0.016088     0.005156     0.004896 
Rotational constants in MHz :   482.312983   154.564836   146.772188 

 Dipole components along the rotational axes: 
x,y,z [a.u.] :    10.392022     4.759418     1.657315 
x,y,z [Debye]:    26.414422    12.097480     4.212559 

 

Timings for individual modules:

Sum of individual times         ...    96578.978 sec (=1609.650 min)
GTO integral calculation        ...        8.305 sec (=   0.138 min)   0.0 %
SCF iterations                  ...     3146.290 sec (=  52.438 min)   3.3 %
MDCI module                     ...    93424.383 sec (=1557.073 min)  96.7 %
                             ****ORCA TERMINATED NORMALLY****
TOTAL RUN TIME: 1 days 2 hours 49 minutes 43 seconds 598 msec
