Loading orca/5.0.3
  Loading requirement: gcc-runtime/11.3.1-gcc-11.3.1-jw6fhud
    numactl/2.0.14-gcc-11.3.1-tqvsbcd openssh/8.7p1-gcc-11.3.1-ddo4kmk
    libiconv/1.17-gcc-11.3.1-h3jdn2x xz/5.4.1-gcc-11.3.1-y32p7p3
    zlib/1.2.13-gcc-11.3.1-dwcx77k libxml2/2.10.3-gcc-11.3.1-m4mk5ab
    cuda/11.8.0-gcc-11.3.1-i5witig libpciaccess/0.17-gcc-11.3.1-qksiqer
    ncurses/6.4-gcc-11.3.1-afnu276 hwloc/2.9.1-gcc-11.3.1-qedjm66
    openssl/3.1.2-gcc-11.3.1-mgoa6lt libevent/2.1.12-gcc-11.3.1-bpr3m74
    pmix/4.2.2-gcc-11.3.1-du4y5e7 slurm/22.05.6-gcc-11.3.1-atym2np
    libnl/3.3.0-gcc-11.3.1-gh3muw7 rdma-core/41.0-gcc-11.3.1-isp54jw
    ucx/1.14.1-gcc-11.3.1-o3wj4kz openmpi/4.1.2-gcc-11.3.1-fs7u3kb

                                 *****************
                                 * O   R   C   A *
                                 *****************

                                            #,                                       
                                            ###                                      
                                            ####                                     
                                            #####                                    
                                            ######                                   
                                           ########,                                 
                                     ,,################,,,,,                         
                               ,,#################################,,                 
                          ,,##########################################,,             
                       ,#########################################, ''#####,          
                    ,#############################################,,   '####,        
                  ,##################################################,,,,####,       
                ,###########''''           ''''###############################       
              ,#####''   ,,,,##########,,,,          '''####'''          '####       
            ,##' ,,,,###########################,,,                        '##       
           ' ,,###''''                  '''############,,,                           
         ,,##''                                '''############,,,,        ,,,,,,###''
      ,#''                                            '''#######################'''  
     '                                                          ''''####''''         
             ,#######,   #######,   ,#######,      ##                                
            ,#'     '#,  ##    ##  ,#'     '#,    #''#        ######   ,####,        
            ##       ##  ##   ,#'  ##            #'  '#       #        #'  '#        
            ##       ##  #######   ##           ,######,      #####,   #    #        
            '#,     ,#'  ##    ##  '#,     ,#' ,#      #,         ##   #,  ,#        
             '#######'   ##     ##  '#######'  #'      '#     #####' # '####'        



                  #######################################################
                  #                        -***-                        #
                  #          Department of theory and spectroscopy      #
                  #    Directorship and core code : Frank Neese         #
                  #        Max Planck Institute fuer Kohlenforschung    #
                  #                Kaiser Wilhelm Platz 1               #
                  #                 D-45470 Muelheim/Ruhr               #
                  #                      Germany                        #
                  #                                                     #
                  #                  All rights reserved                #
                  #                        -***-                        #
                  #######################################################


                         Program Version 5.0.3 -  RELEASE  -


 With contributions from (in alphabetic order):
   Daniel Aravena         : Magnetic Suceptibility
   Michael Atanasov       : Ab Initio Ligand Field Theory (pilot matlab implementation)
   Alexander A. Auer      : GIAO ZORA, VPT2 properties, NMR spectrum
   Ute Becker             : Parallelization
   Giovanni Bistoni       : ED, misc. LED, open-shell LED, HFLD
   Martin Brehm           : Molecular dynamics
   Dmytro Bykov           : SCF Hessian
   Vijay G. Chilkuri      : MRCI spin determinant printing, contributions to CSF-ICE
   Dipayan Datta          : RHF DLPNO-CCSD density
   Achintya Kumar Dutta   : EOM-CC, STEOM-CC
   Dmitry Ganyushin       : Spin-Orbit,Spin-Spin,Magnetic field MRCI
   Miquel Garcia          : C-PCM and meta-GGA Hessian, CC/C-PCM, Gaussian charge scheme
   Yang Guo               : DLPNO-NEVPT2, F12-NEVPT2, CIM, IAO-localization
   Andreas Hansen         : Spin unrestricted coupled pair/coupled cluster methods
   Benjamin Helmich-Paris : MC-RPA, TRAH-SCF, COSX integrals
   Lee Huntington         : MR-EOM, pCC
   Robert Izsak           : Overlap fitted RIJCOSX, COSX-SCS-MP3, EOM
   Marcus Kettner         : VPT2
   Christian Kollmar      : KDIIS, OOCD, Brueckner-CCSD(T), CCSD density, CASPT2, CASPT2-K
   Simone Kossmann        : Meta GGA functionals, TD-DFT gradient, OOMP2, MP2 Hessian
   Martin Krupicka        : Initial AUTO-CI
   Lucas Lang             : DCDCAS
   Marvin Lechner         : AUTO-CI (C++ implementation), FIC-MRCC
   Dagmar Lenk            : GEPOL surface, SMD
   Dimitrios Liakos       : Extrapolation schemes; Compound Job, initial MDCI parallelization
   Dimitrios Manganas     : Further ROCIS development; embedding schemes
   Dimitrios Pantazis     : SARC Basis sets
   Anastasios Papadopoulos: AUTO-CI, single reference methods and gradients
   Taras Petrenko         : DFT Hessian,TD-DFT gradient, ASA, ECA, R-Raman, ABS, FL, XAS/XES, NRVS
   Peter Pinski           : DLPNO-MP2, DLPNO-MP2 Gradient
   Christoph Reimann      : Effective Core Potentials
   Marius Retegan         : Local ZFS, SOC
   Christoph Riplinger    : Optimizer, TS searches, QM/MM, DLPNO-CCSD(T), (RO)-DLPNO pert. Triples
   Tobias Risthaus        : Range-separated hybrids, TD-DFT gradient, RPA, STAB
   Michael Roemelt        : Original ROCIS implementation
   Masaaki Saitow         : Open-shell DLPNO-CCSD energy and density
   Barbara Sandhoefer     : DKH picture change effects
   Avijit Sen             : IP-ROCIS
   Kantharuban Sivalingam : CASSCF convergence, NEVPT2, FIC-MRCI
   Bernardo de Souza      : ESD, SOC TD-DFT
   Georgi Stoychev        : AutoAux, RI-MP2 NMR, DLPNO-MP2 response
   Willem Van den Heuvel  : Paramagnetic NMR
   Boris Wezisla          : Elementary symmetry handling
   Frank Wennmohs         : Technical directorship


 We gratefully acknowledge several colleagues who have allowed us to
 interface, adapt or use parts of their codes:
   Stefan Grimme, W. Hujo, H. Kruse, P. Pracht,  : VdW corrections, initial TS optimization,
                  C. Bannwarth, S. Ehlert          DFT functionals, gCP, sTDA/sTD-DF
   Ed Valeev, F. Pavosevic, A. Kumar             : LibInt (2-el integral package), F12 methods
   Garnet Chan, S. Sharma, J. Yang, R. Olivares  : DMRG
   Ulf Ekstrom                                   : XCFun DFT Library
   Mihaly Kallay                                 : mrcc  (arbitrary order and MRCC methods)
   Jiri Pittner, Ondrej Demel                    : Mk-CCSD
   Frank Weinhold                                : gennbo (NPA and NBO analysis)
   Christopher J. Cramer and Donald G. Truhlar   : smd solvation model
   Lars Goerigk                                  : TD-DFT with DH, B97 family of functionals
   V. Asgeirsson, H. Jonsson                     : NEB implementation
   FAccTs GmbH                                   : IRC, NEB, NEB-TS, DLPNO-Multilevel, CI-OPT
                                                   MM, QMMM, 2- and 3-layer-ONIOM, Crystal-QMMM,
                                                   LR-CPCM, SF, NACMEs, symmetry and pop. for TD-DFT,
                                                   nearIR, NL-DFT gradient (VV10), updates on ESD,
                                                   ML-optimized integration grids
   S Lehtola, MJT Oliveira, MAL Marques          : LibXC Library
   Liviu Ungur et al                             : ANISO software


 Your calculation uses the libint2 library for the computation of 2-el integrals
 For citations please refer to: http://libint.valeyev.net

 Your ORCA version has been built with support for libXC version: 5.1.0
 For citations please refer to: https://tddft.org/programs/libxc/

 This ORCA versions uses:
   CBLAS   interface :  Fast vector & matrix operations
   LAPACKE interface :  Fast linear algebra routines
   SCALAPACK package :  Parallel linear algebra routines
   Shared memory     :  Shared parallel matrices
   BLAS/LAPACK       :  OpenBLAS 0.3.15  USE64BITINT DYNAMIC_ARCH NO_AFFINITY SkylakeX SINGLE_THREADED
        Core in use  :  SkylakeX
   Copyright (c) 2011-2014, The OpenBLAS Project


================================================================================

----- Orbital basis set information -----
Your calculation utilizes the basis: cc-pVQZ 
       H, B-Ne : Obtained from the ccRepo (grant-hill.group.shef.ac.uk/ccrepo) Feb. 2017
                 T. H. Dunning, Jr., J. Chem. Phys. 90, 1007 (1989)
            He : Obtained from the ccRepo (grant-hill.group.shef.ac.uk/ccrepo) Feb. 2017
                 D. E. Woon, T. H. Dunning, Jr., J. Chem. Phys. 100, 2975 (1994)
  Li-Be, Na-Mg : Obtained from the ccRepo (grant-hill.group.shef.ac.uk/ccrepo) Feb. 2017
                 B. P. Prascher, D. E. Woon, K. A. Peterson, T. H. Dunning, Jr., A. K. Wilson, Theor. Chem. Acc. 128, 69 (2011)
         Al-Ar : Obtained from the ccRepo (grant-hill.group.shef.ac.uk/ccrepo) Feb. 2017
                 D. E. Woon, T. H. Dunning, Jr., J. Chem. Phys. 98, 1358 (1993)
            Ca : Obtained from the Peterson Research Group Website (tyr0.chem.wsu.edu/~kipeters) Feb. 2017
                 J. Koput, K. A. Peterson, J. Phys. Chem. 106, 9595 (2002)
         Sc-Zn : Obtained from the ccRepo (grant-hill.group.shef.ac.uk/ccrepo) Feb. 2017
                 N. B. Balabanov, K. A. Peterson, J. Chem. Phys. 123, 064107 (2005)
                 N. B. Balabanov, K. A. Peterson, J. Chem. Phys. 125, 074110 (2006)
         Ga-Kr : Obtained from the ccRepo (grant-hill.group.shef.ac.uk/ccrepo) Feb. 2017
                 A. K. Wilson, D. E. Woon, K. A. Peterson, T. H. Dunning, Jr., J. Chem. Phys. 110, 7667 (1999)

----- AuxC basis set information -----
Your calculation utilizes the auxiliary basis: cc-pVQZ/C 
  Obtained from the EMSL Basis Set Exchange (bse.pnl.gov) Feb. 2017
  H-He, B-F, Al-Ar, Ga-Kr : F. Weigend, A. Kohn, C. Hattig, J. Chem. Phys. 116, 3175 (2002)
             Li-Be, Na-Mg : C. Haettig, Phys. Chem. Chem. Phys. 7, 59 (2005)
                       Ne : C. Haettig, Phys. Chem. Chem. Phys. 7, 59 (2005)
                            F. Weigend, A. Kohn, C. Hattig, J. Chem. Phys. 116, 3175 (2002)
                    Sc-Zn : D. H. Bross, J. G. Hill, H. J. Werner, K. A. Peterson, J. Chem. Phys. 139, 094302 (2013)

================================================================================
                                        WARNINGS
                       Please study these warnings very carefully!
================================================================================


WARNING: Post HF methods need fully converged wavefunctions
  ===> : Setting SCFConvForced true
         You can overwrite this default with %scf ConvForced false 


WARNING: MDCI localization with Augmented Hessian Foster-Boys
  ===> : Switching off randomization!

INFO   : the flag for use of the SHARK integral package has been found!

================================================================================
                                       INPUT FILE
================================================================================
NAME = input
|  1> ! DLPNO-CCSD(T) cc-pVQZ cc-pVQZ/C TIGHTPNO TIGHTSCF
|  2> %maxcore 10000
|  3> %pal
|  4> nprocs 16
|  5> end
|  6> *xyz -1 1
|  7> H 4.327180869242 12.918508148088 8.298778434077
|  8> C 4.615993000000 11.944336000000 8.664806000000
|  9> H 5.138192000000 11.430530000000 7.853092000000
| 10> H 3.716688000000 11.360042000000 8.854892000000
| 11> C 5.487603000000 11.843433000000 9.931391000000
| 12> H 5.057652000000 11.097993000000 10.602974000000
| 13> H 5.510596000000 12.783618000000 10.482553000000
| 14> C 6.882980000000 11.448883000000 9.529757000000
| 15> H 7.271310000000 12.225406000000 8.869678000000
| 16> H 6.830050000000 10.532118000000 8.944906000000
| 17> N 7.904584000000 11.196449000000 10.534633000000
| 18> H 8.771557000000 10.976197000000 10.047701000000
| 19> C 8.096940000000 11.616991000000 11.768281000000
| 20> N 7.101201000000 12.002341000000 12.594746000000
| 21> H 6.199210000000 11.588095000000 12.450849000000
| 22> H 7.396085000000 12.067521000000 13.561656000000
| 23> N 9.331381000000 11.679933000000 12.226567000000
| 24> H 9.475504000000 11.803926000000 13.224908000000
| 25> H 10.095709000000 11.366353000000 11.645908000000
| 26> C 13.100505000000 10.089732000000 9.269804000000
| 27> H 13.602674000000 10.531468000000 10.128736000000
| 28> H 13.601394000000 10.478550000000 8.386425000000
| 29> C 11.690086000000 10.601327000000 9.368410000000
| 30> C 10.756724000000 10.985777000000 8.181964000000
| 31> O 11.216558000000 11.072865000000 7.027178000000
| 32> O 9.581914000000 11.232388000000 8.476949000000
| 33> O 11.216126000000 10.763856000000 10.462554000000
| 34> C 11.201097000000 8.044561000000 10.842912000000
| 35> H 10.654234000000 8.107740000000 11.771196000000
| 36> C 12.494048000000 8.307108000000 10.799960000000
| 37> H 13.036138000000 8.604872000000 11.682912000000
| 38> C 13.208453000000 8.502246000000 9.506997000000
| 39> C 12.543655000000 7.672960000000 8.435843000000
| 40> H 13.169604000000 7.315769000000 7.625673000000
| 41> C 11.267059000000 7.322894000000 8.492970000000
| 42> H 10.820144000000 6.735778000000 7.699067000000
| 43> C 10.385010000000 7.672247000000 9.645186000000
| 44> H 9.746387000000 8.519425000000 9.355946000000
| 45> O 9.557077000000 6.571298000000 9.933614000000
| 46> H 8.861058000000 6.871424000000 10.603517000000
| 47> C 14.735286000000 8.171176000000 9.569384000000
| 48> O 15.304152000000 8.208381000000 10.690487000000
| 49> O 15.304673000000 7.924526000000 8.499763000000
| 50> *
| 51> 
| 52>                          ****END OF INPUT****
================================================================================

                       ****************************
                       * Single Point Calculation *
                       ****************************

---------------------------------
CARTESIAN COORDINATES (ANGSTROEM)
---------------------------------
  H      4.327181   12.918508    8.298778
  C      4.615993   11.944336    8.664806
  H      5.138192   11.430530    7.853092
  H      3.716688   11.360042    8.854892
  C      5.487603   11.843433    9.931391
  H      5.057652   11.097993   10.602974
  H      5.510596   12.783618   10.482553
  C      6.882980   11.448883    9.529757
  H      7.271310   12.225406    8.869678
  H      6.830050   10.532118    8.944906
  N      7.904584   11.196449   10.534633
  H      8.771557   10.976197   10.047701
  C      8.096940   11.616991   11.768281
  N      7.101201   12.002341   12.594746
  H      6.199210   11.588095   12.450849
  H      7.396085   12.067521   13.561656
  N      9.331381   11.679933   12.226567
  H      9.475504   11.803926   13.224908
  H     10.095709   11.366353   11.645908
  C     13.100505   10.089732    9.269804
  H     13.602674   10.531468   10.128736
  H     13.601394   10.478550    8.386425
  C     11.690086   10.601327    9.368410
  C     10.756724   10.985777    8.181964
  O     11.216558   11.072865    7.027178
  O      9.581914   11.232388    8.476949
  O     11.216126   10.763856   10.462554
  C     11.201097    8.044561   10.842912
  H     10.654234    8.107740   11.771196
  C     12.494048    8.307108   10.799960
  H     13.036138    8.604872   11.682912
  C     13.208453    8.502246    9.506997
  C     12.543655    7.672960    8.435843
  H     13.169604    7.315769    7.625673
  C     11.267059    7.322894    8.492970
  H     10.820144    6.735778    7.699067
  C     10.385010    7.672247    9.645186
  H      9.746387    8.519425    9.355946
  O      9.557077    6.571298    9.933614
  H      8.861058    6.871424   10.603517
  C     14.735286    8.171176    9.569384
  O     15.304152    8.208381   10.690487
  O     15.304673    7.924526    8.499763

----------------------------
CARTESIAN COORDINATES (A.U.)
----------------------------
  NO LB      ZA    FRAG     MASS         X           Y           Z
   0 H     1.0000    0     1.008    8.177187   24.412442   15.682418
   1 C     6.0000    0    12.011    8.722963   22.571524   16.374110
   2 H     1.0000    0     1.008    9.709776   21.600571   14.840193
   3 H     1.0000    0     1.008    7.023522   21.467368   16.733321
   4 C     6.0000    0    12.011   10.370067   22.380845   18.767609
   5 H     1.0000    0     1.008    9.557577   20.972167   20.036717
   6 H     1.0000    0     1.008   10.413517   24.157537   19.809154
   7 C     6.0000    0    12.011   13.006947   21.635253   18.008631
   8 H     1.0000    0     1.008   13.740785   23.102669   16.761262
   9 H     1.0000    0     1.008   12.906924   19.902819   16.903423
  10 N     7.0000    0    14.007   14.937499   21.158222   19.907571
  11 H     1.0000    0     1.008   16.575840   20.742006   18.987403
  12 C     6.0000    0    12.011   15.300999   21.952931   22.238828
  13 N     7.0000    0    14.007   13.419325   22.681137   23.800621
  14 H     1.0000    0     1.008   11.714809   21.898326   23.528695
  15 H     1.0000    0     1.008   13.976575   22.804310   25.627816
  16 N     7.0000    0    14.007   17.633755   22.071875   23.104863
  17 H     1.0000    0     1.008   17.906108   22.306187   24.991454
  18 H     1.0000    0     1.008   19.078125   21.479294   22.007577
  19 C     6.0000    0    12.011   24.756367   19.066830   17.517391
  20 H     1.0000    0     1.008   25.705329   19.901590   19.140537
  21 H     1.0000    0     1.008   25.702910   19.801590   15.848046
  22 C     6.0000    0    12.011   22.091061   20.033605   17.703729
  23 C     6.0000    0    12.011   20.327262   20.760110   15.461671
  24 O     8.0000    0    15.999   21.196223   20.924682   13.279442
  25 O     8.0000    0    15.999   18.107193   21.226137   16.019112
  26 O     8.0000    0    15.999   21.195406   20.340740   19.771362
  27 C     6.0000    0    12.011   21.167006   15.202017   20.490134
  28 H     1.0000    0     1.008   20.133584   15.321408   22.244337
  29 C     6.0000    0    12.011   23.610329   15.698159   20.408967
  30 H     1.0000    0     1.008   24.634731   16.260851   22.077504
  31 C     6.0000    0    12.011   24.960359   16.066916   17.965621
  32 C     6.0000    0    12.011   23.704073   14.499793   15.941433
  33 H     1.0000    0     1.008   24.886945   13.824800   14.410434
  34 C     6.0000    0    12.011   21.291656   13.838264   16.049387
  35 H     1.0000    0     1.008   20.447109   12.728776   14.549128
  36 C     6.0000    0    12.011   19.624825   14.498446   18.226760
  37 H     1.0000    0     1.008   18.418002   16.099380   17.680176
  38 O     8.0000    0    15.999   18.060258   12.417954   18.771810
  39 H     1.0000    0     1.008   16.744973   12.985110   20.037743
  40 C     6.0000    0    12.011   27.845655   15.441285   18.083515
  41 O     8.0000    0    15.999   28.920656   15.511592   20.202093
  42 O     8.0000    0    15.999   28.921641   14.975184   16.062224

--------------------------------
INTERNAL COORDINATES (ANGSTROEM)
--------------------------------
 H      0   0   0     0.000000000000     0.00000000     0.00000000
 C      1   0   0     1.079999999999     0.00000000     0.00000000
 H      2   1   0     1.093420330446   107.45633229     0.00000000
 H      2   1   3     1.089165574583   108.79838985   245.91921407
 C      2   1   3     1.540818928276   119.27077718   123.22670429
 H      5   2   1     1.091587093131   109.12611153   132.70429831
 H      5   2   1     1.090071585960   111.78223569    15.00521862
 C      5   2   1     1.504678219615   108.80468912   253.36123146
 H      8   5   2     1.090638549048   107.76096658    60.70976997
 H      8   5   2     1.088719588474   108.60878146   305.17384569
 N      8   5   2     1.455051006854   120.81431935   183.90276584
 H     11   8   5     1.018457607786   107.75873344   181.79662447
 C     11   8   5     1.317476296714   133.93185849   333.52694026
 N     13  11   8     1.350198198357   123.82006611    27.49347535
 H     14  13  11     1.002942600155   117.22869843    28.01677455
 H     14  13  11     1.012975791397   112.82703216   165.37241749
 N     13  11   8     1.318268688713   118.52109897   208.13735259
 H     17  13  11     1.016282665138   118.69365446   193.24560645
 H     17  13  11     1.009799278206   119.60711357   357.11091158
 C     19  17  13     4.037874490134   178.89080137   356.09884990
 H     20  19  17     1.088608551721    75.56274069   176.79378649
 H     20  19  17     1.087394907605   135.05460100    77.80073687
 C     20  19  17     1.503573856790    32.41210131    25.93351253
 C     23  20  19     1.557761386240   126.58903315   173.37171038
 O     24  23  20     1.246018592596   120.13236663   349.32140963
 O     24  23  20     1.236127692290   115.90816418   171.66408092
 O     23  20  19     1.203413831638   118.36097390   354.87098021
 C     27  23  20     2.745808328349    89.67618719   291.32920231
 H     28  27  23     1.079241359227    93.66633321   187.29451624
 C     28  27  23     1.320037154748    78.06267435    66.52961464
 H     30  28  27     1.078020965520   121.38760157    86.21641965
 C     30  28  27     1.490035792335   121.59417429   279.96146950
 C     32  30  28     1.508987257175   109.43664416   329.49563402
 H     33  32  30     1.084330664503   117.19914363   209.51724101
 C     33  32  30     1.324955488196   122.62058218    26.08545419
 H     35  33  32     1.083845094139   120.58603974   179.29500636
 C     35  33  32     1.492534645382   122.74126889   357.61037519
 H     37  35  33     1.099640703781   108.69216234   102.41793896
 O     37  35  33     1.407392079086   108.83007398   220.23411287
 H     39  37  35     1.011577032977   107.96231956   189.58950026
 C     32  30  28     1.563559558366   113.94375048   205.87389588
 O     41  32  30     1.257722018011   118.09776542   337.32084247
 O     41  32  30     1.236578692162   117.21680185   159.16583156

---------------------------
INTERNAL COORDINATES (A.U.)
---------------------------
 H      0   0   0     0.000000000000     0.00000000     0.00000000
 C      1   0   0     2.040904224634     0.00000000     0.00000000
 H      2   1   0     2.066264973805   107.45633229     0.00000000
 H      2   1   3     2.058224650457   108.79838985   245.91921407
 C      2   1   3     2.911725796404   119.27077718   123.22670429
 H      5   2   1     2.062800657341   109.12611153   132.70429831
 H      5   2   1     2.059936763834   111.78223569    15.00521862
 C      5   2   1     2.843429754749   108.80468912   253.36123146
 H      8   5   2     2.061008168798   107.76096658    60.70976997
 H      8   5   2     2.057381858850   108.60878146   305.17384569
 N      8   5   2     2.749647913841   120.81431935   183.90276584
 H     11   8   5     1.924605957724   107.75873344   181.79662447
 C     11   8   5     2.489669388723   133.93185849   333.52694026
 N     13  11   8     2.551504821408   123.82006611    27.49347535
 H     14  13  11     1.895286842336   117.22869843    28.01677455
 H     14  13  11     1.914246826032   112.82703216   165.37241749
 N     13  11   8     2.491166792591   118.52109897   208.13735259
 H     17  13  11     1.920495911761   118.69365446   193.24560645
 H     17  13  11     1.908244086040   119.60711357   357.11091158
 C     19  17  13     7.630476949500   178.89080137   356.09884990
 H     20  19  17     2.057172029798    75.56274069   176.79378649
 H     20  19  17     2.054878574795   135.05460100    77.80073687
 C     20  19  17     2.841342811457    32.41210131    25.93351253
 C     23  20  19     2.943742401991   126.58903315   173.37171038
 O     24  23  20     2.354633897781   120.13236663   349.32140963
 O     24  23  20     2.335942804984   115.90816418   171.66408092
 O     23  20  19     2.274122567568   118.36097390   354.87098021
 C     27  23  20     5.188825756819    89.67618719   291.32920231
 H     28  27  23     2.039470601340    93.66633321   187.29451624
 C     28  27  23     2.494508709073    78.06267435    66.52961464
 H     30  28  27     2.037164391458   121.38760157    86.21641965
 C     30  28  27     2.815759577253   121.59417429   279.96146950
 C     32  30  28     2.851572655637   109.43664416   329.49563402
 H     33  32  30     2.049087994524   117.19914363   209.51724101
 C     33  32  30     2.503803012327   122.62058218    26.08545419
 H     35  33  32     2.048170399518   120.58603974   179.29500636
 C     35  33  32     2.820481725162   122.74126889   357.61037519
 H     37  35  33     2.078019775859   108.69216234   102.41793896
 O     37  35  33     2.659585592523   108.83007398   220.23411287
 H     39  37  35     1.911603555691   107.96231956   189.58950026
 C     32  30  28     2.954699359387   113.94375048   205.87389588
 O     41  32  30     2.376750166644   118.09776542   337.32084247
 O     41  32  30     2.336795071229   117.21680185   159.16583156

---------------------
BASIS SET INFORMATION
---------------------
There are 4 groups of distinct atoms

 Group   1 Type H   : 6s3p2d1f contracted to 4s3p2d1f pattern {3111/111/11/1}
 Group   2 Type C   : 21s6p3d2f1g contracted to 5s4p3d2f1g pattern {99111/3111/111/11/1}
 Group   3 Type N   : 21s6p3d2f1g contracted to 5s4p3d2f1g pattern {99111/3111/111/11/1}
 Group   4 Type O   : 21s6p3d2f1g contracted to 5s4p3d2f1g pattern {99111/3111/111/11/1}

Atom   0H    basis set group =>   1
Atom   1C    basis set group =>   2
Atom   2H    basis set group =>   1
Atom   3H    basis set group =>   1
Atom   4C    basis set group =>   2
Atom   5H    basis set group =>   1
Atom   6H    basis set group =>   1
Atom   7C    basis set group =>   2
Atom   8H    basis set group =>   1
Atom   9H    basis set group =>   1
Atom  10N    basis set group =>   3
Atom  11H    basis set group =>   1
Atom  12C    basis set group =>   2
Atom  13N    basis set group =>   3
Atom  14H    basis set group =>   1
Atom  15H    basis set group =>   1
Atom  16N    basis set group =>   3
Atom  17H    basis set group =>   1
Atom  18H    basis set group =>   1
Atom  19C    basis set group =>   2
Atom  20H    basis set group =>   1
Atom  21H    basis set group =>   1
Atom  22C    basis set group =>   2
Atom  23C    basis set group =>   2
Atom  24O    basis set group =>   4
Atom  25O    basis set group =>   4
Atom  26O    basis set group =>   4
Atom  27C    basis set group =>   2
Atom  28H    basis set group =>   1
Atom  29C    basis set group =>   2
Atom  30H    basis set group =>   1
Atom  31C    basis set group =>   2
Atom  32C    basis set group =>   2
Atom  33H    basis set group =>   1
Atom  34C    basis set group =>   2
Atom  35H    basis set group =>   1
Atom  36C    basis set group =>   2
Atom  37H    basis set group =>   1
Atom  38O    basis set group =>   4
Atom  39H    basis set group =>   1
Atom  40C    basis set group =>   2
Atom  41O    basis set group =>   4
Atom  42O    basis set group =>   4
---------------------------------
AUXILIARY/C BASIS SET INFORMATION
---------------------------------
There are 4 groups of distinct atoms

 Group   1 Type H   : 5s4p3d2f1g contracted to 5s4p3d2f1g pattern {11111/1111/111/11/1}
 Group   2 Type C   : 8s7p6d5f3g1h contracted to 8s7p6d5f3g1h pattern {11111111/1111111/111111/11111/111/1}
 Group   3 Type N   : 8s7p6d5f3g1h contracted to 8s7p6d5f3g1h pattern {11111111/1111111/111111/11111/111/1}
 Group   4 Type O   : 8s7p6d5f3g1h contracted to 8s7p6d5f3g1h pattern {11111111/1111111/111111/11111/111/1}

Atom   0H    basis set group =>   1
Atom   1C    basis set group =>   2
Atom   2H    basis set group =>   1
Atom   3H    basis set group =>   1
Atom   4C    basis set group =>   2
Atom   5H    basis set group =>   1
Atom   6H    basis set group =>   1
Atom   7C    basis set group =>   2
Atom   8H    basis set group =>   1
Atom   9H    basis set group =>   1
Atom  10N    basis set group =>   3
Atom  11H    basis set group =>   1
Atom  12C    basis set group =>   2
Atom  13N    basis set group =>   3
Atom  14H    basis set group =>   1
Atom  15H    basis set group =>   1
Atom  16N    basis set group =>   3
Atom  17H    basis set group =>   1
Atom  18H    basis set group =>   1
Atom  19C    basis set group =>   2
Atom  20H    basis set group =>   1
Atom  21H    basis set group =>   1
Atom  22C    basis set group =>   2
Atom  23C    basis set group =>   2
Atom  24O    basis set group =>   4
Atom  25O    basis set group =>   4
Atom  26O    basis set group =>   4
Atom  27C    basis set group =>   2
Atom  28H    basis set group =>   1
Atom  29C    basis set group =>   2
Atom  30H    basis set group =>   1
Atom  31C    basis set group =>   2
Atom  32C    basis set group =>   2
Atom  33H    basis set group =>   1
Atom  34C    basis set group =>   2
Atom  35H    basis set group =>   1
Atom  36C    basis set group =>   2
Atom  37H    basis set group =>   1
Atom  38O    basis set group =>   4
Atom  39H    basis set group =>   1
Atom  40C    basis set group =>   2
Atom  41O    basis set group =>   4
Atom  42O    basis set group =>   4


           ************************************************************
           *        Program running with 16 parallel MPI-processes    *
           *              working on a common directory               *
           ************************************************************
------------------------------------------------------------------------------
                           ORCA GTO INTEGRAL CALCULATION
------------------------------------------------------------------------------
------------------------------------------------------------------------------
                   ___                                                        
                  /   \      - P O W E R E D   B Y -                         
                 /     \                                                     
                 |  |  |   _    _      __       _____    __    __             
                 |  |  |  | |  | |    /  \     |  _  \  |  |  /  |          
                  \  \/   | |  | |   /    \    | | | |  |  | /  /          
                 / \  \   | |__| |  /  /\  \   | |_| |  |  |/  /          
                |  |  |   |  __  | /  /__\  \  |    /   |      \           
                |  |  |   | |  | | |   __   |  |    \   |  |\   \          
                \     /   | |  | | |  |  |  |  | |\  \  |  | \   \       
                 \___/    |_|  |_| |__|  |__|  |_| \__\ |__|  \__/        
                                                                              
                      - O R C A' S   B I G   F R I E N D -                    
                                      &                                       
                       - I N T E G R A L  F E E D E R -                       
                                                                              
 v1 FN, 2020, v2 2021                                                         
------------------------------------------------------------------------------


Reading SHARK input file input.SHARKINP.tmp ... ok
----------------------
SHARK INTEGRAL PACKAGE
----------------------

Number of atoms                             ...     43
Number of basis functions                   ...   2026
Number of shells                            ...    706
Maximum angular momentum                    ...      4
Integral batch strategy                     ... SHARK/LIBINT Hybrid
RI-J (if used) integral strategy            ... SPLIT-RIJ (Revised 2003 algorithm where possible)
Printlevel                                  ...      1
Contraction scheme used                     ... PARTIAL GENERAL contraction
Coulomb Range Separation                    ... NOT USED
Exchange Range Separation                   ... NOT USED
Finite Nucleus Model                        ... NOT USED
Auxiliary Coulomb fitting basis             ... NOT available
Auxiliary J/K fitting basis                 ... NOT available
Auxiliary Correlation fitting basis         ... AVAILABLE
   # of basis functions in Aux-C            ...   4136
   # of shells in Aux-C                     ...    990
   Maximum angular momentum in Aux-C        ...      5
Auxiliary 'external' fitting basis          ... NOT available
Integral threshold                          ...     2.500000e-11
Primitive cut-off                           ...     2.500000e-12
Primitive pair pre-selection threshold      ...     2.500000e-12

Calculating pre-screening integrals         ... done (  0.4 sec) Dimension = 706
Calculating pre-screening integrals (ORCA)  ... done (  0.8 sec) Dimension = 545
Organizing shell pair data                  ... done (  2.1 sec)
Shell pair information
Total number of shell pairs                 ...    249571
Shell pairs after pre-screening             ...    114829
Total number of primitive shell pairs       ...    314157
Primitive shell pairs kept                  ...    130022
          la=0 lb=0:  24036 shell pairs
          la=1 lb=0:  27237 shell pairs
          la=1 lb=1:   7203 shell pairs
          la=2 lb=0:  16967 shell pairs
          la=2 lb=1:   9497 shell pairs
          la=2 lb=2:   3143 shell pairs
          la=3 lb=0:   9464 shell pairs
          la=3 lb=1:   5446 shell pairs
          la=3 lb=2:   3503 shell pairs
          la=3 lb=3:   1031 shell pairs
          la=4 lb=0:   3327 shell pairs
          la=4 lb=1:   1909 shell pairs
          la=4 lb=2:   1239 shell pairs
          la=4 lb=3:    694 shell pairs
          la=4 lb=4:    133 shell pairs

Calculating one electron integrals          ... done (  0.4 sec)
Calculating RI/C V-Matrix + Cholesky decomp.... done (  1.2 sec)
Calculating Nuclear repulsion               ... done (  0.0 sec) ENN=   2036.461168209569 Eh

SHARK setup successfully completed in   7.4 seconds

Maximum memory used throughout the entire GTOINT-calculation: 175.4 MB


           ************************************************************
           *        Program running with 16 parallel MPI-processes    *
           *              working on a common directory               *
           ************************************************************
-------------------------------------------------------------------------------
                                 ORCA SCF
-------------------------------------------------------------------------------

------------
SCF SETTINGS
------------
Hamiltonian:
 Ab initio Hamiltonian  Method          .... Hartree-Fock(GTOs)


General Settings:
 Integral files         IntName         .... input
 Hartree-Fock type      HFTyp           .... RHF
 Total Charge           Charge          ....   -1
 Multiplicity           Mult            ....    1
 Number of Electrons    NEL             ....  174
 Basis Dimension        Dim             .... 1865
 Nuclear Repulsion      ENuc            ....   2036.4611682096 Eh

Convergence Acceleration:
 DIIS                   CNVDIIS         .... on
   Start iteration      DIISMaxIt       ....    12
   Startup error        DIISStart       ....  0.200000
   # of expansion vecs  DIISMaxEq       ....     5
   Bias factor          DIISBfac        ....   1.050
   Max. coefficient     DIISMaxC        ....  10.000
 Trust-Rad. Augm. Hess. CNVTRAH         .... auto
   Auto Start mean grad. ratio tolernc. ....  1.125000
   Auto Start start iteration           ....    20
   Auto Start num. interpolation iter.  ....    10
   Max. Number of Micro iterations      ....    16
   Max. Number of Macro iterations      .... Maxiter - #DIIS iter
   Number of Davidson start vectors     ....     2
   Converg. threshold I  (grad. norm)   ....   1.000e-05
   Converg. threshold II (energy diff.) ....   1.000e-08
   Grad. Scal. Fac. for Micro threshold ....   0.100
   Minimum threshold for Micro iter.    ....   0.010
   NR start threshold (gradient norm)   ....   0.001
   Initial trust radius                 ....   0.400
   Minimum AH scaling param. (alpha)    ....   1.000
   Maximum AH scaling param. (alpha)    .... 1000.000
   Orbital update algorithm             .... Taylor
   White noise on init. David. guess    .... on
   Maximum white noise                  ....   0.010
   Quad. conv. algorithm                .... NR
 SOSCF                  CNVSOSCF        .... on
   Start iteration      SOSCFMaxIt      ....   150
   Startup grad/error   SOSCFStart      ....  0.003300
 Level Shifting         CNVShift        .... on
   Level shift para.    LevelShift      ....    0.2500
   Turn off err/grad.   ShiftErr        ....    0.0010
 Zerner damping         CNVZerner       .... off
 Static damping         CNVDamp         .... on
   Fraction old density DampFac         ....    0.7000
   Max. Damping (<1)    DampMax         ....    0.9800
   Min. Damping (>=0)   DampMin         ....    0.0000
   Turn off err/grad.   DampErr         ....    0.1000
 Fernandez-Rico         CNVRico         .... off

SCF Procedure:
 Maximum # iterations   MaxIter         ....   125
 SCF integral mode      SCFMode         .... Direct
   Integral package                     .... SHARK and LIBINT hybrid scheme
 Reset frequency        DirectResetFreq ....    20
 Integral Threshold     Thresh          ....  2.500e-11 Eh
 Primitive CutOff       TCut            ....  2.500e-12 Eh

Convergence Tolerance:
 Convergence Check Mode ConvCheckMode   .... Total+1el-Energy
 Convergence forced     ConvForced      .... 1
 Energy Change          TolE            ....  1.000e-08 Eh
 1-El. energy change                    ....  1.000e-05 Eh
 Orbital Gradient       TolG            ....  1.000e-05
 Orbital Rotation angle TolX            ....  1.000e-05
 DIIS Error             TolErr          ....  5.000e-07


Diagonalization of the overlap matrix:
Smallest eigenvalue                        ... 7.788e-06
Time for diagonalization                   ...    0.441 sec
Threshold for overlap eigenvalues          ... 1.000e-08
Number of eigenvalues below threshold      ... 0
Time for construction of square roots      ...    0.438 sec
Total time needed                          ...    0.906 sec

Time for model grid setup =    0.457 sec

------------------------------
INITIAL GUESS: MODEL POTENTIAL
------------------------------
Loading Hartree-Fock densities                     ... done
Calculating cut-offs                               ... done
Initializing the effective Hamiltonian             ... done
Setting up the integral package (SHARK)            ... done
Starting the Coulomb interaction                   ... done (   1.8 sec)
Reading the grid                                   ... done
Mapping shells                                     ... done
Starting the XC term evaluation                    ... done (   0.4 sec)
Transforming the Hamiltonian                       ... done (   0.3 sec)
Diagonalizing the Hamiltonian                      ... done (   0.5 sec)
Back transforming the eigenvectors                 ... done (   0.1 sec)
Now organizing SCF variables                       ... done
                      ------------------
                      INITIAL GUESS DONE (   4.0 sec)
                      ------------------
--------------
SCF ITERATIONS
--------------
ITER       Energy         Delta-E        Max-DP      RMS-DP      [F,P]     Damp
               ***  Starting incremental Fock matrix formation  ***
  0  -1153.5795012748   0.000000000000 0.21448397  0.00045180  0.3844531 0.7000
  1  -1154.0041896817  -0.424688406933 0.23024820  0.00045472  0.2324198 0.7000
                               ***Turning on DIIS***
  2  -1154.2553952510  -0.251205569261 0.13867406  0.00029061  0.1340194 0.7000
  3  -1157.0288597729  -2.773464521940 0.14635636  0.00043741  0.0797401 0.0000
  4  -1154.6833008647   2.345558908258 0.08107513  0.00014004  0.0081848 0.0000
  5  -1154.7969933961  -0.113692531403 0.03921470  0.00006267  0.0042829 0.0000
                      *** Initiating the SOSCF procedure ***
                           *** Shutting down DIIS ***
                      *** Re-Reading the Fockian *** 
                      *** Removing any level shift *** 
ITER      Energy       Delta-E        Grad      Rot      Max-DP    RMS-DP
  6  -1154.76124618   0.0357472183  0.000900  0.000900  0.017757  0.000032
               *** Restarting incremental Fock matrix formation ***
  7  -1154.78002341  -0.0187772326  0.000458  0.001103  0.011238  0.000020
  8  -1154.78005064  -0.0000272247  0.000178  0.000975  0.006128  0.000014
  9  -1154.78005906  -0.0000084275  0.000046  0.000123  0.001750  0.000004
 10  -1154.78005975  -0.0000006836  0.000019  0.000046  0.000475  0.000001
 11  -1154.78005982  -0.0000000775  0.000012  0.000044  0.000098  0.000000
 12  -1154.78005984  -0.0000000147  0.000003  0.000011  0.000084  0.000000
                  ***Gradient check signals convergence***
              ***Rediagonalizing the Fockian in SOSCF/NRSCF***

               *****************************************************
               *                     SUCCESS                       *
               *           SCF CONVERGED AFTER  13 CYCLES          *
               *****************************************************


----------------
TOTAL SCF ENERGY
----------------

Total Energy       :        -1154.78005985 Eh          -31423.16295 eV

Components:
Nuclear Repulsion  :         2036.46116821 Eh           55414.92563 eV
Electronic Energy  :        -3191.24122806 Eh          -86838.08858 eV
One Electron Energy:        -5652.77885324 Eh         -153819.93265 eV
Two Electron Energy:         2461.53762518 Eh           66981.84407 eV

Virial components:
Potential Energy   :        -2308.94152061 Eh          -62829.49297 eV
Kinetic Energy     :         1154.16146076 Eh           31406.33001 eV
Virial Ratio       :            2.00053597


---------------
SCF CONVERGENCE
---------------

  Last Energy change         ...   -1.1041e-08  Tolerance :   1.0000e-08
  Last MAX-Density change    ...    3.0090e-05  Tolerance :   1.0000e-07
  Last RMS-Density change    ...    7.8490e-08  Tolerance :   5.0000e-09
  Last Orbital Gradient      ...    1.1305e-06  Tolerance :   1.0000e-05
  Last Orbital Rotation      ...    3.7225e-06  Tolerance :   1.0000e-05

             **** THE GBW FILE WAS UPDATED (input.gbw) ****
             **** DENSITY input.scfp WAS UPDATED ****
             **** ENERGY FILE WAS UPDATED (input.en.tmp) ****
             **** THE GBW FILE WAS UPDATED (input.gbw) ****
             **** DENSITY input.scfp WAS UPDATED ****
----------------
ORBITAL ENERGIES
----------------

  NO   OCC          E(Eh)            E(eV) 
   0   2.0000     -20.453336      -556.5636 
   1   2.0000     -20.441068      -556.2297 
   2   2.0000     -20.362789      -554.0997 
   3   2.0000     -20.350019      -553.7522 
   4   2.0000     -20.296723      -552.3019 
   5   2.0000     -20.294081      -552.2300 
   6   2.0000     -15.579528      -423.9405 
   7   2.0000     -15.549908      -423.1345 
   8   2.0000     -15.537354      -422.7929 
   9   2.0000     -11.361508      -309.1623 
  10   2.0000     -11.212751      -305.1145 
  11   2.0000     -11.212216      -305.0999 
  12   2.0000     -11.198383      -304.7235 
  13   2.0000     -11.192246      -304.5565 
  14   2.0000     -11.177207      -304.1473 
  15   2.0000     -11.161469      -303.7190 
  16   2.0000     -11.144266      -303.2509 
  17   2.0000     -11.107693      -302.2557 
  18   2.0000     -11.105298      -302.1905 
  19   2.0000     -11.089596      -301.7632 
  20   2.0000     -11.088211      -301.7256 
  21   2.0000     -11.087084      -301.6949 
  22   2.0000     -11.084281      -301.6186 
  23   2.0000      -1.322623       -35.9904 
  24   2.0000      -1.304393       -35.4943 
  25   2.0000      -1.252261       -34.0758 
  26   2.0000      -1.245964       -33.9044 
  27   2.0000      -1.187771       -32.3209 
  28   2.0000      -1.187367       -32.3099 
  29   2.0000      -1.167995       -31.7828 
  30   2.0000      -1.136768       -30.9330 
  31   2.0000      -1.075807       -29.2742 
  32   2.0000      -1.026110       -27.9219 
  33   2.0000      -1.006518       -27.3887 
  34   2.0000      -0.909768       -24.7561 
  35   2.0000      -0.905581       -24.6421 
  36   2.0000      -0.886633       -24.1265 
  37   2.0000      -0.832886       -22.6640 
  38   2.0000      -0.826014       -22.4770 
  39   2.0000      -0.793046       -21.5799 
  40   2.0000      -0.741269       -20.1709 
  41   2.0000      -0.737880       -20.0787 
  42   2.0000      -0.710041       -19.3212 
  43   2.0000      -0.706328       -19.2202 
  44   2.0000      -0.674361       -18.3503 
  45   2.0000      -0.653310       -17.7775 
  46   2.0000      -0.641887       -17.4666 
  47   2.0000      -0.623997       -16.9798 
  48   2.0000      -0.600657       -16.3447 
  49   2.0000      -0.592877       -16.1330 
  50   2.0000      -0.579375       -15.7656 
  51   2.0000      -0.573539       -15.6068 
  52   2.0000      -0.563472       -15.3328 
  53   2.0000      -0.556040       -15.1306 
  54   2.0000      -0.530578       -14.4378 
  55   2.0000      -0.522947       -14.2301 
  56   2.0000      -0.514302       -13.9949 
  57   2.0000      -0.506535       -13.7835 
  58   2.0000      -0.505182       -13.7467 
  59   2.0000      -0.501208       -13.6386 
  60   2.0000      -0.472238       -12.8502 
  61   2.0000      -0.470956       -12.8154 
  62   2.0000      -0.455163       -12.3856 
  63   2.0000      -0.454137       -12.3577 
  64   2.0000      -0.452978       -12.3262 
  65   2.0000      -0.452121       -12.3028 
  66   2.0000      -0.446780       -12.1575 
  67   2.0000      -0.438697       -11.9376 
  68   2.0000      -0.419921       -11.4266 
  69   2.0000      -0.414577       -11.2812 
  70   2.0000      -0.410762       -11.1774 
  71   2.0000      -0.406273       -11.0552 
  72   2.0000      -0.390495       -10.6259 
  73   2.0000      -0.385210       -10.4821 
  74   2.0000      -0.363011        -9.8780 
  75   2.0000      -0.353621        -9.6225 
  76   2.0000      -0.347074        -9.4444 
  77   2.0000      -0.337190        -9.1754 
  78   2.0000      -0.308030        -8.3819 
  79   2.0000      -0.284905        -7.7527 
  80   2.0000      -0.261956        -7.1282 
  81   2.0000      -0.257919        -7.0183 
  82   2.0000      -0.242956        -6.6112 
  83   2.0000      -0.224231        -6.1016 
  84   2.0000      -0.212853        -5.7920 
  85   2.0000      -0.200398        -5.4531 
  86   2.0000      -0.197186        -5.3657 
  87   0.0000       0.118735         3.2309 
  88   0.0000       0.148335         4.0364 
  89   0.0000       0.169891         4.6230 
  90   0.0000       0.177938         4.8419 
  91   0.0000       0.194054         5.2805 
  92   0.0000       0.198325         5.3967 
  93   0.0000       0.209661         5.7052 
  94   0.0000       0.218213         5.9379 
  95   0.0000       0.221635         6.0310 
  96   0.0000       0.233123         6.3436 
  97   0.0000       0.245657         6.6847 
  98   0.0000       0.250782         6.8241 
  99   0.0000       0.260140         7.0788 
 100   0.0000       0.264468         7.1965 
 101   0.0000       0.267825         7.2879 
 102   0.0000       0.275756         7.5037 
 103   0.0000       0.289032         7.8650 
 104   0.0000       0.291757         7.9391 
 105   0.0000       0.297622         8.0987 
 106   0.0000       0.308495         8.3946 
 107   0.0000       0.312580         8.5057 
 108   0.0000       0.322069         8.7639 
 109   0.0000       0.324116         8.8197 
 110   0.0000       0.328778         8.9465 
 111   0.0000       0.334346         9.0980 
 112   0.0000       0.340519         9.2660 
 113   0.0000       0.348440         9.4815 
 114   0.0000       0.353033         9.6065 
 115   0.0000       0.366666         9.9775 
 116   0.0000       0.372925        10.1478 
 117   0.0000       0.379412        10.3243 
 118   0.0000       0.385289        10.4842 
 119   0.0000       0.389874        10.6090 
 120   0.0000       0.398490        10.8435 
 121   0.0000       0.403724        10.9859 
 122   0.0000       0.410281        11.1643 
 123   0.0000       0.411719        11.2034 
 124   0.0000       0.415914        11.3176 
 125   0.0000       0.426886        11.6162 
 126   0.0000       0.430225        11.7070 
 127   0.0000       0.438649        11.9362 
 128   0.0000       0.440332        11.9820 
 129   0.0000       0.442799        12.0492 
 130   0.0000       0.452108        12.3025 
 131   0.0000       0.458958        12.4889 
 132   0.0000       0.461380        12.5548 
 133   0.0000       0.464724        12.6458 
 134   0.0000       0.472666        12.8619 
 135   0.0000       0.476601        12.9690 
 136   0.0000       0.478646        13.0246 
 137   0.0000       0.485633        13.2148 
 138   0.0000       0.485880        13.2215 
 139   0.0000       0.489526        13.3207 
 140   0.0000       0.492461        13.4006 
 141   0.0000       0.497439        13.5360 
 142   0.0000       0.506353        13.7786 
 143   0.0000       0.507994        13.8232 
 144   0.0000       0.518642        14.1130 
 145   0.0000       0.521029        14.1779 
 146   0.0000       0.523135        14.2352 
 147   0.0000       0.526345        14.3226 
 148   0.0000       0.533665        14.5218 
 149   0.0000       0.538366        14.6497 
 150   0.0000       0.538993        14.6667 
 151   0.0000       0.543449        14.7880 
 152   0.0000       0.553760        15.0686 
 153   0.0000       0.554983        15.1019 
 154   0.0000       0.557628        15.1738 
 155   0.0000       0.562314        15.3013 
 156   0.0000       0.566076        15.4037 
 157   0.0000       0.567963        15.4551 
 158   0.0000       0.572009        15.5652 
 159   0.0000       0.577584        15.7169 
 160   0.0000       0.581212        15.8156 
 161   0.0000       0.584060        15.8931 
 162   0.0000       0.593962        16.1625 
 163   0.0000       0.595859        16.2141 
 164   0.0000       0.601206        16.3596 
 165   0.0000       0.604038        16.4367 
 166   0.0000       0.609074        16.5738 
 167   0.0000       0.614196        16.7131 
 168   0.0000       0.616476        16.7752 
 169   0.0000       0.617831        16.8120 
 170   0.0000       0.618918        16.8416 
 171   0.0000       0.620978        16.8977 
 172   0.0000       0.628069        17.0906 
 173   0.0000       0.629689        17.1347 
 174   0.0000       0.637361        17.3435 
 175   0.0000       0.639913        17.4129 
 176   0.0000       0.645455        17.5637 
 177   0.0000       0.648141        17.6368 
 178   0.0000       0.653471        17.7819 
 179   0.0000       0.659087        17.9347 
 180   0.0000       0.662752        18.0344 
 181   0.0000       0.668046        18.1784 
 182   0.0000       0.671648        18.2765 
 183   0.0000       0.679806        18.4985 
 184   0.0000       0.681559        18.5461 
 185   0.0000       0.689365        18.7586 
 186   0.0000       0.691423        18.8146 
 187   0.0000       0.695265        18.9191 
 188   0.0000       0.701353        19.0848 
 189   0.0000       0.711114        19.3504 
 190   0.0000       0.720620        19.6091 
 191   0.0000       0.722998        19.6738 
 192   0.0000       0.727558        19.7978 
 193   0.0000       0.734176        19.9779 
 194   0.0000       0.739845        20.1322 
 195   0.0000       0.744285        20.2530 
 196   0.0000       0.753112        20.4932 
 197   0.0000       0.757959        20.6251 
 198   0.0000       0.762272        20.7425 
 199   0.0000       0.765324        20.8255 
 200   0.0000       0.771401        20.9909 
 201   0.0000       0.778206        21.1761 
 202   0.0000       0.780022        21.2255 
 203   0.0000       0.785807        21.3829 
 204   0.0000       0.787791        21.4369 
 205   0.0000       0.796151        21.6644 
 206   0.0000       0.799459        21.7544 
 207   0.0000       0.801961        21.8225 
 208   0.0000       0.813882        22.1468 
 209   0.0000       0.816295        22.2125 
 210   0.0000       0.820332        22.3224 
 211   0.0000       0.825508        22.4632 
 212   0.0000       0.830864        22.6090 
 213   0.0000       0.833445        22.6792 
 214   0.0000       0.838474        22.8160 
 215   0.0000       0.843388        22.9498 
 216   0.0000       0.848994        23.1023 
 217   0.0000       0.851971        23.1833 
 218   0.0000       0.855293        23.2737 
 219   0.0000       0.863941        23.5090 
 220   0.0000       0.865294        23.5458 
 221   0.0000       0.869778        23.6679 
 222   0.0000       0.872344        23.7377 
 223   0.0000       0.877996        23.8915 
 224   0.0000       0.886188        24.1144 
 225   0.0000       0.893713        24.3192 
 226   0.0000       0.900850        24.5134 
 227   0.0000       0.902757        24.5653 
 228   0.0000       0.907824        24.7032 
 229   0.0000       0.912306        24.8251 
 230   0.0000       0.912923        24.8419 
 231   0.0000       0.917167        24.9574 
 232   0.0000       0.922565        25.1043 
 233   0.0000       0.933999        25.4154 
 234   0.0000       0.935332        25.4517 
 235   0.0000       0.937905        25.5217 
 236   0.0000       0.940876        25.6025 
 237   0.0000       0.946180        25.7469 
 238   0.0000       0.953763        25.9532 
 239   0.0000       0.957230        26.0475 
 240   0.0000       0.957355        26.0509 
 241   0.0000       0.964897        26.2562 
 242   0.0000       0.966860        26.3096 
 243   0.0000       0.974669        26.5221 
 244   0.0000       0.977713        26.6049 
 245   0.0000       0.981381        26.7047 
 246   0.0000       0.988374        26.8950 
 247   0.0000       0.991596        26.9827 
 248   0.0000       0.996833        27.1252 
 249   0.0000       1.000669        27.2296 
 250   0.0000       1.003701        27.3121 
 251   0.0000       1.008850        27.4522 
 252   0.0000       1.009677        27.4747 
 253   0.0000       1.014464        27.6050 
 254   0.0000       1.018283        27.7089 
 255   0.0000       1.027632        27.9633 
 256   0.0000       1.031240        28.0615 
 257   0.0000       1.035419        28.1752 
 258   0.0000       1.037321        28.2269 
 259   0.0000       1.044274        28.4161 
 260   0.0000       1.046641        28.4806 
 261   0.0000       1.049482        28.5579 
 262   0.0000       1.052467        28.6391 
 263   0.0000       1.060724        28.8638 
 264   0.0000       1.066030        29.0081 
 265   0.0000       1.071985        29.1702 
 266   0.0000       1.077147        29.3107 
 267   0.0000       1.080945        29.4140 
 268   0.0000       1.085377        29.5346 
 269   0.0000       1.089959        29.6593 
 270   0.0000       1.096611        29.8403 
 271   0.0000       1.101929        29.9850 
 272   0.0000       1.106645        30.1133 
 273   0.0000       1.109546        30.1923 
 274   0.0000       1.110466        30.2173 
 275   0.0000       1.119641        30.4670 
 276   0.0000       1.121960        30.5301 
 277   0.0000       1.124812        30.6077 
 278   0.0000       1.129864        30.7452 
 279   0.0000       1.133156        30.8347 
 280   0.0000       1.137745        30.9596 
 281   0.0000       1.145235        31.1634 
 282   0.0000       1.153360        31.3845 
 283   0.0000       1.158348        31.5203 
 284   0.0000       1.159151        31.5421 
 285   0.0000       1.162973        31.6461 
 286   0.0000       1.168042        31.7840 
 287   0.0000       1.174274        31.9536 
 288   0.0000       1.176669        32.0188 
 289   0.0000       1.179231        32.0885 
 290   0.0000       1.181870        32.1603 
 291   0.0000       1.182178        32.1687 
 292   0.0000       1.189909        32.3791 
 293   0.0000       1.198017        32.5997 
 294   0.0000       1.200243        32.6603 
 295   0.0000       1.202392        32.7188 
 296   0.0000       1.203905        32.7599 
 297   0.0000       1.206535        32.8315 
 298   0.0000       1.215629        33.0789 
 299   0.0000       1.222599        33.2686 
 300   0.0000       1.227728        33.4082 
 301   0.0000       1.229750        33.4632 
 302   0.0000       1.235660        33.6240 
 303   0.0000       1.241374        33.7795 
 304   0.0000       1.243597        33.8400 
 305   0.0000       1.245341        33.8875 
 306   0.0000       1.249941        34.0126 
 307   0.0000       1.252562        34.0839 
 308   0.0000       1.260402        34.2973 
 309   0.0000       1.262271        34.3482 
 310   0.0000       1.265127        34.4258 
 311   0.0000       1.269062        34.5329 
 312   0.0000       1.272203        34.6184 
 313   0.0000       1.279553        34.8184 
 314   0.0000       1.284877        34.9633 
 315   0.0000       1.288859        35.0716 
 316   0.0000       1.296317        35.2746 
 317   0.0000       1.297177        35.2980 
 318   0.0000       1.304236        35.4901 
 319   0.0000       1.309801        35.6415 
 320   0.0000       1.312302        35.7096 
 321   0.0000       1.317494        35.8508 
 322   0.0000       1.326821        36.1046 
 323   0.0000       1.327944        36.1352 
 324   0.0000       1.332395        36.2563 
 325   0.0000       1.338172        36.4135 
 326   0.0000       1.340762        36.4840 
 327   0.0000       1.348602        36.6973 
 328   0.0000       1.349800        36.7299 
 329   0.0000       1.350971        36.7618 
 330   0.0000       1.361071        37.0366 
 331   0.0000       1.367628        37.2151 
 332   0.0000       1.369320        37.2611 
 333   0.0000       1.375715        37.4351 
 334   0.0000       1.382994        37.6332 
 335   0.0000       1.388425        37.7810 
 336   0.0000       1.394873        37.9564 
 337   0.0000       1.397701        38.0334 
 338   0.0000       1.400343        38.1053 
 339   0.0000       1.404951        38.2307 
 340   0.0000       1.411914        38.4201 
 341   0.0000       1.419211        38.6187 
 342   0.0000       1.425804        38.7981 
 343   0.0000       1.429163        38.8895 
 344   0.0000       1.434000        39.0211 
 345   0.0000       1.436686        39.0942 
 346   0.0000       1.438535        39.1445 
 347   0.0000       1.442188        39.2439 
 348   0.0000       1.452392        39.5216 
 349   0.0000       1.454886        39.5894 
 350   0.0000       1.465556        39.8798 
 351   0.0000       1.467672        39.9374 
 352   0.0000       1.476211        40.1698 
 353   0.0000       1.484049        40.3830 
 354   0.0000       1.485693        40.4278 
 355   0.0000       1.499936        40.8153 
 356   0.0000       1.504871        40.9496 
 357   0.0000       1.509012        41.0623 
 358   0.0000       1.515733        41.2452 
 359   0.0000       1.522333        41.4248 
 360   0.0000       1.524980        41.4968 
 361   0.0000       1.533035        41.7160 
 362   0.0000       1.536964        41.8229 
 363   0.0000       1.547374        42.1062 
 364   0.0000       1.557148        42.3722 
 365   0.0000       1.567600        42.6566 
 366   0.0000       1.570938        42.7474 
 367   0.0000       1.580894        43.0183 
 368   0.0000       1.585387        43.1406 
 369   0.0000       1.601625        43.5824 
 370   0.0000       1.606714        43.7209 
 371   0.0000       1.619929        44.0805 
 372   0.0000       1.633165        44.4407 
 373   0.0000       1.639545        44.6143 
 374   0.0000       1.640549        44.6416 
 375   0.0000       1.646454        44.8023 
 376   0.0000       1.652086        44.9555 
 377   0.0000       1.654935        45.0331 
 378   0.0000       1.658791        45.1380 
 379   0.0000       1.672999        45.5246 
 380   0.0000       1.678048        45.6620 
 381   0.0000       1.688837        45.9556 
 382   0.0000       1.693839        46.0917 
 383   0.0000       1.696481        46.1636 
 384   0.0000       1.707891        46.4741 
 385   0.0000       1.712733        46.6058 
 386   0.0000       1.720568        46.8190 
 387   0.0000       1.721427        46.8424 
 388   0.0000       1.727697        47.0130 
 389   0.0000       1.730872        47.0994 
 390   0.0000       1.737806        47.2881 
 391   0.0000       1.750679        47.6384 
 392   0.0000       1.753743        47.7218 
 393   0.0000       1.754860        47.7522 
 394   0.0000       1.763264        47.9809 
 395   0.0000       1.769624        48.1539 
 396   0.0000       1.778499        48.3954 
 397   0.0000       1.782941        48.5163 
 398   0.0000       1.786734        48.6195 
 399   0.0000       1.797205        48.9044 
 400   0.0000       1.799709        48.9726 
 401   0.0000       1.805695        49.1355 
 402   0.0000       1.813256        49.3412 
 403   0.0000       1.818848        49.4934 
 404   0.0000       1.829335        49.7787 
 405   0.0000       1.831815        49.8462 
 406   0.0000       1.839365        50.0517 
 407   0.0000       1.846768        50.2531 
 408   0.0000       1.848982        50.3134 
 409   0.0000       1.851195        50.3736 
 410   0.0000       1.858625        50.5758 
 411   0.0000       1.867212        50.8094 
 412   0.0000       1.875539        51.0360 
 413   0.0000       1.883167        51.2436 
 414   0.0000       1.886793        51.3422 
 415   0.0000       1.902689        51.7748 
 416   0.0000       1.911128        52.0044 
 417   0.0000       1.912915        52.0531 
 418   0.0000       1.921671        52.2913 
 419   0.0000       1.923827        52.3500 
 420   0.0000       1.928303        52.4718 
 421   0.0000       1.937462        52.7210 
 422   0.0000       1.938123        52.7390 
 423   0.0000       1.950348        53.0717 
 424   0.0000       1.953844        53.1668 
 425   0.0000       1.954756        53.1916 
 426   0.0000       1.964691        53.4620 
 427   0.0000       1.967227        53.5310 
 428   0.0000       1.970895        53.6308 
 429   0.0000       1.979415        53.8626 
 430   0.0000       1.992404        54.2161 
 431   0.0000       1.994844        54.2825 
 432   0.0000       1.997596        54.3574 
 433   0.0000       1.998829        54.3909 
 434   0.0000       2.007063        54.6150 
 435   0.0000       2.011849        54.7452 
 436   0.0000       2.018889        54.9368 
 437   0.0000       2.025941        55.1286 
 438   0.0000       2.026991        55.1572 
 439   0.0000       2.034727        55.3677 
 440   0.0000       2.038495        55.4703 
 441   0.0000       2.043390        55.6035 
 442   0.0000       2.053666        55.8831 
 443   0.0000       2.061437        56.0946 
 444   0.0000       2.065617        56.2083 
 445   0.0000       2.071972        56.3812 
 446   0.0000       2.075085        56.4659 
 447   0.0000       2.079259        56.5795 
 448   0.0000       2.087720        56.8098 
 449   0.0000       2.093087        56.9558 
 450   0.0000       2.097611        57.0789 
 451   0.0000       2.099305        57.1250 
 452   0.0000       2.108178        57.3665 
 453   0.0000       2.112579        57.4862 
 454   0.0000       2.114952        57.5508 
 455   0.0000       2.121599        57.7316 
 456   0.0000       2.128521        57.9200 
 457   0.0000       2.130599        57.9765 
 458   0.0000       2.136554        58.1386 
 459   0.0000       2.141947        58.2853 
 460   0.0000       2.145935        58.3938 
 461   0.0000       2.149315        58.4858 
 462   0.0000       2.158946        58.7479 
 463   0.0000       2.163490        58.8715 
 464   0.0000       2.171132        59.0795 
 465   0.0000       2.172254        59.1100 
 466   0.0000       2.178755        59.2870 
 467   0.0000       2.179793        59.3152 
 468   0.0000       2.182337        59.3844 
 469   0.0000       2.192980        59.6740 
 470   0.0000       2.197532        59.7979 
 471   0.0000       2.202774        59.9405 
 472   0.0000       2.204228        59.9801 
 473   0.0000       2.210149        60.1412 
 474   0.0000       2.212796        60.2132 
 475   0.0000       2.216517        60.3145 
 476   0.0000       2.221335        60.4456 
 477   0.0000       2.226989        60.5994 
 478   0.0000       2.229620        60.6711 
 479   0.0000       2.240332        60.9625 
 480   0.0000       2.244113        61.0654 
 481   0.0000       2.245251        61.0964 
 482   0.0000       2.255260        61.3687 
 483   0.0000       2.256980        61.4155 
 484   0.0000       2.261960        61.5511 
 485   0.0000       2.265433        61.6456 
 486   0.0000       2.270806        61.7918 
 487   0.0000       2.273462        61.8641 
 488   0.0000       2.280508        62.0558 
 489   0.0000       2.286070        62.2071 
 490   0.0000       2.291582        62.3571 
 491   0.0000       2.298049        62.5331 
 492   0.0000       2.299056        62.5605 
 493   0.0000       2.302245        62.6473 
 494   0.0000       2.306414        62.7607 
 495   0.0000       2.316040        63.0226 
 496   0.0000       2.323331        63.2211 
 497   0.0000       2.324737        63.2593 
 498   0.0000       2.327979        63.3475 
 499   0.0000       2.337105        63.5959 
 500   0.0000       2.338253        63.6271 
 501   0.0000       2.343197        63.7616 
 502   0.0000       2.344031        63.7843 
 503   0.0000       2.348121        63.8956 
 504   0.0000       2.355875        64.1066 
 505   0.0000       2.358449        64.1766 
 506   0.0000       2.365480        64.3680 
 507   0.0000       2.368385        64.4470 
 508   0.0000       2.375141        64.6309 
 509   0.0000       2.375396        64.6378 
 510   0.0000       2.378007        64.7089 
 511   0.0000       2.383105        64.8476 
 512   0.0000       2.388063        64.9825 
 513   0.0000       2.398236        65.2593 
 514   0.0000       2.400501        65.3209 
 515   0.0000       2.403661        65.4070 
 516   0.0000       2.407596        65.5140 
 517   0.0000       2.414760        65.7090 
 518   0.0000       2.420739        65.8717 
 519   0.0000       2.422217        65.9119 
 520   0.0000       2.427708        66.0613 
 521   0.0000       2.433179        66.2102 
 522   0.0000       2.441249        66.4298 
 523   0.0000       2.441876        66.4468 
 524   0.0000       2.451152        66.6992 
 525   0.0000       2.456606        66.8476 
 526   0.0000       2.460316        66.9486 
 527   0.0000       2.462221        67.0004 
 528   0.0000       2.472759        67.2872 
 529   0.0000       2.476390        67.3860 
 530   0.0000       2.478943        67.4555 
 531   0.0000       2.481367        67.5214 
 532   0.0000       2.489697        67.7481 
 533   0.0000       2.492916        67.8357 
 534   0.0000       2.494882        67.8892 
 535   0.0000       2.500161        68.0328 
 536   0.0000       2.503981        68.1368 
 537   0.0000       2.509023        68.2740 
 538   0.0000       2.517517        68.5051 
 539   0.0000       2.520827        68.5952 
 540   0.0000       2.523756        68.6749 
 541   0.0000       2.531279        68.8796 
 542   0.0000       2.533787        68.9479 
 543   0.0000       2.539602        69.1061 
 544   0.0000       2.545433        69.2648 
 545   0.0000       2.550779        69.4102 
 546   0.0000       2.553738        69.4907 
 547   0.0000       2.554681        69.5164 
 548   0.0000       2.558715        69.6262 
 549   0.0000       2.564571        69.7855 
 550   0.0000       2.568505        69.8926 
 551   0.0000       2.574385        70.0526 
 552   0.0000       2.580514        70.2193 
 553   0.0000       2.585426        70.3530 
 554   0.0000       2.589946        70.4760 
 555   0.0000       2.594883        70.6104 
 556   0.0000       2.599115        70.7255 
 557   0.0000       2.606220        70.9188 
 558   0.0000       2.610290        71.0296 
 559   0.0000       2.613253        71.1102 
 560   0.0000       2.617948        71.2380 
 561   0.0000       2.623129        71.3790 
 562   0.0000       2.625759        71.4505 
 563   0.0000       2.629673        71.5570 
 564   0.0000       2.639045        71.8121 
 565   0.0000       2.642002        71.8925 
 566   0.0000       2.643328        71.9286 
 567   0.0000       2.648813        72.0779 
 568   0.0000       2.656539        72.2881 
 569   0.0000       2.661932        72.4349 
 570   0.0000       2.663767        72.4848 
 571   0.0000       2.669713        72.6466 
 572   0.0000       2.671116        72.6848 
 573   0.0000       2.676386        72.8282 
 574   0.0000       2.685487        73.0758 
 575   0.0000       2.688283        73.1519 
 576   0.0000       2.690735        73.2186 
 577   0.0000       2.695019        73.3352 
 578   0.0000       2.698763        73.4371 
 579   0.0000       2.706532        73.6485 
 580   0.0000       2.710714        73.7623 
 581   0.0000       2.715348        73.8884 
 582   0.0000       2.717020        73.9339 
 583   0.0000       2.724282        74.1315 
 584   0.0000       2.726602        74.1946 
 585   0.0000       2.728986        74.2595 
 586   0.0000       2.732447        74.3537 
 587   0.0000       2.737530        74.4920 
 588   0.0000       2.752463        74.8983 
 589   0.0000       2.753829        74.9355 
 590   0.0000       2.755492        74.9807 
 591   0.0000       2.761343        75.1400 
 592   0.0000       2.765022        75.2401 
 593   0.0000       2.766933        75.2921 
 594   0.0000       2.774642        75.5018 
 595   0.0000       2.777174        75.5708 
 596   0.0000       2.779879        75.6444 
 597   0.0000       2.783196        75.7346 
 598   0.0000       2.790970        75.9461 
 599   0.0000       2.795892        76.0801 
 600   0.0000       2.802269        76.2536 
 601   0.0000       2.813433        76.5574 
 602   0.0000       2.815187        76.6051 
 603   0.0000       2.816271        76.6346 
 604   0.0000       2.824866        76.8685 
 605   0.0000       2.826328        76.9083 
 606   0.0000       2.828896        76.9782 
 607   0.0000       2.836006        77.1716 
 608   0.0000       2.842793        77.3563 
 609   0.0000       2.849748        77.5456 
 610   0.0000       2.857099        77.7456 
 611   0.0000       2.860353        77.8342 
 612   0.0000       2.866224        77.9939 
 613   0.0000       2.871478        78.1369 
 614   0.0000       2.874095        78.2081 
 615   0.0000       2.878816        78.3366 
 616   0.0000       2.882007        78.4234 
 617   0.0000       2.886860        78.5555 
 618   0.0000       2.896052        78.8056 
 619   0.0000       2.900599        78.9293 
 620   0.0000       2.903317        79.0033 
 621   0.0000       2.911777        79.2335 
 622   0.0000       2.917214        79.3814 
 623   0.0000       2.920110        79.4602 
 624   0.0000       2.922018        79.5122 
 625   0.0000       2.927612        79.6644 
 626   0.0000       2.935964        79.8916 
 627   0.0000       2.937815        79.9420 
 628   0.0000       2.941582        80.0445 
 629   0.0000       2.951653        80.3185 
 630   0.0000       2.954233        80.3888 
 631   0.0000       2.960472        80.5585 
 632   0.0000       2.964951        80.6804 
 633   0.0000       2.974587        80.9426 
 634   0.0000       2.980081        81.0921 
 635   0.0000       2.983364        81.1815 
 636   0.0000       2.986297        81.2613 
 637   0.0000       2.991321        81.3980 
 638   0.0000       2.995957        81.5241 
 639   0.0000       3.004928        81.7683 
 640   0.0000       3.009479        81.8921 
 641   0.0000       3.012511        81.9746 
 642   0.0000       3.017820        82.1191 
 643   0.0000       3.021593        82.2217 
 644   0.0000       3.025535        82.3290 
 645   0.0000       3.039561        82.7107 
 646   0.0000       3.040135        82.7263 
 647   0.0000       3.047191        82.9183 
 648   0.0000       3.050902        83.0193 
 649   0.0000       3.062143        83.3251 
 650   0.0000       3.063019        83.3490 
 651   0.0000       3.068404        83.4955 
 652   0.0000       3.080985        83.8379 
 653   0.0000       3.081881        83.8623 
 654   0.0000       3.086672        83.9926 
 655   0.0000       3.091667        84.1285 
 656   0.0000       3.094901        84.2165 
 657   0.0000       3.102019        84.4102 
 658   0.0000       3.111684        84.6732 
 659   0.0000       3.114371        84.7463 
 660   0.0000       3.117933        84.8433 
 661   0.0000       3.130258        85.1786 
 662   0.0000       3.134680        85.2990 
 663   0.0000       3.140724        85.4635 
 664   0.0000       3.144077        85.5547 
 665   0.0000       3.150115        85.7190 
 666   0.0000       3.155968        85.8783 
 667   0.0000       3.162253        86.0493 
 668   0.0000       3.163957        86.0956 
 669   0.0000       3.174055        86.3704 
 670   0.0000       3.177404        86.4615 
 671   0.0000       3.180794        86.5538 
 672   0.0000       3.187681        86.7412 
 673   0.0000       3.191082        86.8338 
 674   0.0000       3.196797        86.9893 
 675   0.0000       3.202885        87.1549 
 676   0.0000       3.209013        87.3217 
 677   0.0000       3.215788        87.5060 
 678   0.0000       3.220514        87.6346 
 679   0.0000       3.224971        87.7559 
 680   0.0000       3.230651        87.9105 
 681   0.0000       3.235060        88.0305 
 682   0.0000       3.238744        88.1307 
 683   0.0000       3.247573        88.3710 
 684   0.0000       3.251194        88.4695 
 685   0.0000       3.258193        88.6599 
 686   0.0000       3.266896        88.8968 
 687   0.0000       3.269513        88.9680 
 688   0.0000       3.279757        89.2467 
 689   0.0000       3.282290        89.3157 
 690   0.0000       3.290595        89.5416 
 691   0.0000       3.297965        89.7422 
 692   0.0000       3.301422        89.8362 
 693   0.0000       3.306334        89.9699 
 694   0.0000       3.316902        90.2575 
 695   0.0000       3.323129        90.4269 
 696   0.0000       3.327899        90.5567 
 697   0.0000       3.329241        90.5932 
 698   0.0000       3.336051        90.7786 
 699   0.0000       3.343347        90.9771 
 700   0.0000       3.349860        91.1543 
 701   0.0000       3.361343        91.4668 
 702   0.0000       3.362257        91.4917 
 703   0.0000       3.369201        91.6806 
 704   0.0000       3.372940        91.7824 
 705   0.0000       3.378821        91.9424 
 706   0.0000       3.383895        92.0805 
 707   0.0000       3.392064        92.3028 
 708   0.0000       3.398994        92.4913 
 709   0.0000       3.399916        92.5164 
 710   0.0000       3.403205        92.6059 
 711   0.0000       3.410203        92.7963 
 712   0.0000       3.414074        92.9017 
 713   0.0000       3.423422        93.1560 
 714   0.0000       3.428506        93.2944 
 715   0.0000       3.434257        93.4509 
 716   0.0000       3.437164        93.5300 
 717   0.0000       3.446775        93.7915 
 718   0.0000       3.453389        93.9715 
 719   0.0000       3.456048        94.0438 
 720   0.0000       3.459969        94.1505 
 721   0.0000       3.466473        94.3275 
 722   0.0000       3.472074        94.4799 
 723   0.0000       3.476139        94.5905 
 724   0.0000       3.479375        94.6786 
 725   0.0000       3.485999        94.8589 
 726   0.0000       3.489245        94.9472 
 727   0.0000       3.496746        95.1513 
 728   0.0000       3.501855        95.2903 
 729   0.0000       3.505668        95.3941 
 730   0.0000       3.514501        95.6344 
 731   0.0000       3.522316        95.8471 
 732   0.0000       3.527095        95.9771 
 733   0.0000       3.534585        96.1810 
 734   0.0000       3.536551        96.2344 
 735   0.0000       3.542894        96.4070 
 736   0.0000       3.552829        96.6774 
 737   0.0000       3.555192        96.7417 
 738   0.0000       3.562537        96.9416 
 739   0.0000       3.569451        97.1297 
 740   0.0000       3.579682        97.4081 
 741   0.0000       3.583107        97.5013 
 742   0.0000       3.596097        97.8548 
 743   0.0000       3.597298        97.8875 
 744   0.0000       3.610095        98.2357 
 745   0.0000       3.617334        98.4327 
 746   0.0000       3.621921        98.5575 
 747   0.0000       3.623913        98.6117 
 748   0.0000       3.627652        98.7134 
 749   0.0000       3.638867        99.0186 
 750   0.0000       3.640780        99.0707 
 751   0.0000       3.649848        99.3174 
 752   0.0000       3.653677        99.4216 
 753   0.0000       3.658338        99.5484 
 754   0.0000       3.665522        99.7439 
 755   0.0000       3.674669        99.9928 
 756   0.0000       3.682867       100.2159 
 757   0.0000       3.684567       100.2622 
 758   0.0000       3.689565       100.3982 
 759   0.0000       3.703360       100.7736 
 760   0.0000       3.713695       101.0548 
 761   0.0000       3.716664       101.1356 
 762   0.0000       3.727052       101.4182 
 763   0.0000       3.733542       101.5948 
 764   0.0000       3.738035       101.7171 
 765   0.0000       3.740834       101.7933 
 766   0.0000       3.745855       101.9299 
 767   0.0000       3.757270       102.2405 
 768   0.0000       3.758203       102.2659 
 769   0.0000       3.766091       102.4805 
 770   0.0000       3.769420       102.5711 
 771   0.0000       3.777652       102.7951 
 772   0.0000       3.785232       103.0014 
 773   0.0000       3.794792       103.2615 
 774   0.0000       3.799219       103.3820 
 775   0.0000       3.803262       103.4920 
 776   0.0000       3.812781       103.7510 
 777   0.0000       3.819071       103.9222 
 778   0.0000       3.820156       103.9517 
 779   0.0000       3.831554       104.2619 
 780   0.0000       3.834979       104.3551 
 781   0.0000       3.844023       104.6012 
 782   0.0000       3.846989       104.6819 
 783   0.0000       3.858462       104.9941 
 784   0.0000       3.862452       105.1027 
 785   0.0000       3.867345       105.2358 
 786   0.0000       3.872021       105.3630 
 787   0.0000       3.879500       105.5666 
 788   0.0000       3.882453       105.6469 
 789   0.0000       3.886501       105.7571 
 790   0.0000       3.895261       105.9954 
 791   0.0000       3.900788       106.1458 
 792   0.0000       3.903528       106.2204 
 793   0.0000       3.912888       106.4751 
 794   0.0000       3.913731       106.4980 
 795   0.0000       3.924602       106.7938 
 796   0.0000       3.928618       106.9031 
 797   0.0000       3.933386       107.0329 
 798   0.0000       3.943146       107.2985 
 799   0.0000       3.951434       107.5240 
 800   0.0000       3.959003       107.7300 
 801   0.0000       3.965105       107.8960 
 802   0.0000       3.971934       108.0818 
 803   0.0000       3.979392       108.2848 
 804   0.0000       3.984592       108.4263 
 805   0.0000       3.991515       108.6146 
 806   0.0000       3.997382       108.7743 
 807   0.0000       4.004081       108.9566 
 808   0.0000       4.010617       109.1344 
 809   0.0000       4.021230       109.4232 
 810   0.0000       4.026774       109.5741 
 811   0.0000       4.029678       109.6531 
 812   0.0000       4.031827       109.7116 
[...]
Spin component scaling                      .... not used

PASS-1: Formation of initial guess LMP2 amplitudes
Initial amplitudes guess done. Entering LMP2 iteration loop:
   Max. no of iterations          ...  50
   Energy convergence tolerance   ...    1.0e-07
   Residual convergence tolerance ...    5.0e-07
   Fock matrix cutoff             ...    1.0e-05 Eh
   DIIS convergence acceleration parameters:
        Max # vectors in DIIS     ... 7
        Start iteration of DIIS   ... 0
        Levelshift                ... 2.000e-01
        Damping factor 1          ... 5.000e-01
        Damping factor 2          ... 1.000e+00
   L-MP2 PNO cut-off              ...   1.0e-09
   L-MP2 PNO cut-off (core)       ...   1.0e-11
                           *** Turning on DIIS ***
LMP2-Iter=   0:  ELMP2= -4.557375398517  DE=   1.0e-01 RMAX=   1.8e-02
LMP2-Iter=   1:  ELMP2= -4.612107349339  DE=   5.5e-02 RMAX=   8.6e-03
LMP2-Iter=   2:  ELMP2= -4.623029936019  DE=   1.1e-02 RMAX=   3.4e-03
LMP2-Iter=   3:  ELMP2= -4.624520246455  DE=   1.5e-03 RMAX=   1.2e-03
LMP2-Iter=   4:  ELMP2= -4.624526856541  DE=   6.6e-06 RMAX=   3.3e-04
LMP2-Iter=   5:  ELMP2= -4.624486514592  DE=   4.0e-05 RMAX=   1.1e-04
LMP2-Iter=   6:  ELMP2= -4.624479671790  DE=   6.8e-06 RMAX=   3.1e-05
LMP2-Iter=   7:  ELMP2= -4.624480331746  DE=   6.6e-07 RMAX=   1.0e-05
LMP2-Iter=   8:  ELMP2= -4.624480964092  DE=   6.3e-07 RMAX=   3.0e-06
LMP2-Iter=   9:  ELMP2= -4.624480919956  DE=   4.4e-08 RMAX=   9.7e-07
LMP2-Iter=  10:  ELMP2= -4.624480924974  DE=   5.0e-09 RMAX=   2.2e-07
LMP2-Iter=  11:  ELMP2= -4.624480901372  DE=   2.4e-08 RMAX=   5.4e-08 => CONVERGED
PASS-2: Formation of Pair natural orbitals
   .... Finished loop over pairs

 PNO Occupation Number Statistics: 
  | Av. % of trace(Dij) retained        ...  97.554527443789
  | sigma^2 in % of trace(Dij) retained ...   1.31e+01
  | Av. % of trace(Di) retained         ...  99.999516280453
  | sigma^2 in % of trace(Di) retained  ...   1.86e-08
 Distributions of % trace(Dij) recovered:
  |       >= 99.9  ...   231 ( 13.3 % of all pairs)
  |   [60.0, 70.0) ...     1 (  0.1 % of all pairs)
  |   [70.0, 80.0) ...    12 (  0.7 % of all pairs)
  |   [80.0, 90.0) ...    77 (  4.4 % of all pairs)
  |   [90.0, 99.0) ...   847 ( 48.9 % of all pairs)
  |   [99.0, 99.9) ...   564 ( 32.6 % of all pairs)
 Distributions of % trace(Di) recovered :
  |       >= 99.9  ...    64 (100.0 % of all I-pairs )

Making pair pair interaction lists          ... done

                       ===========================
                       1153 OF 1732 PAIRS ARE KEPT
                       ===========================

Total time spent in the initial guess                 ...  1217.807 sec
L-MP2 correlation energy (all non-screened pairs)     ...      -4.624480901372 Eh
L-MP2 PNO error correction                            ...      -0.000336149417 Eh
                                                          --------------------
Initial total L-MP2 energy (non-screened pairs)       ...      -4.624817050789 Eh

Initial PNO correlation energy                        ...      -4.613168445985 Eh
sum of pair energies estimated for screened out pairs ...      -0.000141574550 Eh
sum of MP2 pair energies for pairs that were not kept ...      -0.002759909960 Eh
sum of PNO error estimates for the kept pairs         ...      -0.009343895696 Eh
                                                          --------------------
sum of all corrections                                         -0.012245380206
Initial total correlation energy                               -4.625413826191
Thresholds for map construction and integral transformation for fine MP2 and CCSD(T) calculation:
   TCutMKN   ...     1.0e-03
   TCutDO    ...     5.0e-03
   TCutPairs ...     1.0e-05
   TCutCMO   ...     1.0e-03
   TCutCPAO  ...     1.0e-03

Time for aux screen maps:            0.034
Time for maps after fine MP2:            0.236
-----------------------------
LOCAL RI TRANSFORMATION (IJV)
-----------------------------

Orbital window:      23 to 86
Basis functions:   1865 (545 shells)
Aux. functions:    4136 (990 shells)
Use SHARK:           on

Processing maps (0.0 sec)
Average map sizes:
   Aux shells -> MOs(i)           54.5
   Aux shells -> MOs(j)           64.0
   MOs        -> AO shells       464.8

Calculating integrals (19.0 sec, 110.686 MB)
Sorting integrals (0.4 sec, 110.640 MB)
Total time for the integral transformation: 19.5 sec
--------------------------------
LOCAL RI TRANSFORMATION (VABPAO)
--------------------------------

Number of PAOs:    1865
Basis functions:   1865 (545 shells)
Aux. functions:    4136 (990 shells)
Use SHARK:           on

Processing maps (0.0 sec)
Average map sizes:
   Aux shells -> PAOs           1831.4
   PAOs       -> AO shells       524.1

Calculating integrals (165.2 sec, 106111.000 MB)
Finished


-------------------------------------
Pair Pair Term precalculation with     
RI-(ij|mn) and (im|jn) transformation  
ON THE FLY                             
-------------------------------------

   IBatch   1 (of   9)              ... done (  308.811 sec)
   IBatch   2 (of   9)              ... done (  349.810 sec)
   IBatch   3 (of   9)              ... done (  381.288 sec)
   IBatch   4 (of   9)              ... done (  399.367 sec)
   IBatch   5 (of   9)              ... done (  399.263 sec)
   IBatch   6 (of   9)              ... done (  541.076 sec)
   IBatch   7 (of   9)              ... done (  574.784 sec)
   IBatch   8 (of   9)              ... done (  750.946 sec)
   IBatch   9 (of   9)              ... done (  943.068 sec)
Total EXT                           ...        4648.415 sec

---------------------
RI-PNO TRANSFORMATION
---------------------

Total Number of PNOs                   ... 42972
Average number of PNOs per pair        ...    37
Maximal number of PNOs per pair        ...   120
   #pairs with  1 -  5 PNOs   :    0
   #pairs with  6 - 10 PNOs   :  238
   #pairs with 11 - 15 PNOs   :  125
   #pairs with 16 - 20 PNOs   :   88
   #pairs with 21 - 25 PNOs   :   83
   #pairs with 26 - 30 PNOs   :   66
   #pairs with 31 - 35 PNOs   :   69
   #pairs with 36 - 40 PNOs   :   62
   #pairs with 41 - 45 PNOs   :   44
   #pairs with 46 - 50 PNOs   :   30
   #pairs with 51 - 55 PNOs   :   35
   #pairs with 56 - 60 PNOs   :   53
   #pairs with 61 - 65 PNOs   :   34
   #pairs with 66 - 70 PNOs   :   19
   #pairs with 71 - 75 PNOs   :   16
   #pairs with 76 - 80 PNOs   :   51
   #pairs with 81 - 85 PNOs   :   38
   #pairs with 86 - 90 PNOs   :   27
   #pairs with 91 - 95 PNOs   :   45
   #pairs with > 96 PNOs      :   30

Generation of (ij|ab)[P] integrals            ... on
Generation of (ia|bc)[P],(ja|bc)[P] integrals ... on
Storage of 3 and 4 external integrals         ... on
Generation of ALL (ka|bc)[P] integrals        ... on
Keep RI integrals in memory                   ... off

Ibatch:  1 (of  1)
Starting 2-4 index PNO integral generation ... done

Timings:
Total PNO integral transformation time     ...       2630.671 sec
Size of the 3-external file                ...      1411 MB
Size of the 4-external file                ...     14238 MB
Size of the IKJL file                      ...         1 MB
Size of the all 3-external file            ...     40735 MB
Size of the 1-external file                ...        58 MB

Making pair/pair overlap matrices          ... done (  704.181 sec)
Size of the pair overlap file              ... 9610 MB
Redoing the guess amplitudes               ... done (    0.128 sec)

-------------------------
FINAL STARTUP INFORMATION
-------------------------

E(0)                                       ...  -1154.780059843
E(L-MP2)                                   ...     -4.624817051
E(L-MP2) including corrections             ...     -4.625413826
Initial E(tot)                             ...  -1159.405473670
<T|T>                                      ...      1.127728927
Number of pairs included                   ... 1153
Total number of pairs                      ... 2080

------------------------------------------------
                  RHF COUPLED CLUSTER ITERATIONS
------------------------------------------------

Number of PNO amplitudes to be optimized   ...      2524914
Number of non-PNO amplitudes               ...   3644960452
Untruncated number of regular amplitudes   ...   6575470720

Iter       E(tot)           E(Corr)          Delta-E          Residual     Time
  0  -1159.232618946     -4.440313722      0.184503328      0.014080240  243.83
                           *** Turning on DIIS ***
  1  -1159.297936684     -4.505631460     -0.065317738      0.012118779  227.58
  2  -1159.397280128     -4.604974904     -0.099343444      0.006213189  230.53
  3  -1159.421341824     -4.629036601     -0.024061696      0.003673096  230.66
  4  -1159.428460893     -4.636155670     -0.007119069      0.001761285  229.29
  5  -1159.430663380     -4.638358157     -0.002202487      0.000824300  230.42
  6  -1159.431191293     -4.638886069     -0.000527912      0.000408348  230.04
  7  -1159.431301808     -4.638996585     -0.000110516      0.000193617  230.27
  8  -1159.431323246     -4.639018023     -0.000021438      0.000120404  232.37
  9  -1159.431297729     -4.638992505      0.000025517      0.000073585  231.65
 10  -1159.431304181     -4.638998957     -0.000006452      0.000051249  230.97
 11  -1159.431301411     -4.638996187      0.000002770      0.000032621  230.69
 12  -1159.431300857     -4.638995633      0.000000554      0.000019407  230.82
 13  -1159.431298139     -4.638992916      0.000002718      0.000011150  230.16
 14  -1159.431296458     -4.638991234      0.000001682      0.000005956  230.44
               --- The Coupled-Cluster iterations have converged ---

----------------------
COUPLED CLUSTER ENERGY
----------------------

E(0)                                       ...  -1154.780059843
E(CORR)(strong-pairs)                      ...     -4.638991234
E(CORR)(weak-pairs)                        ...     -0.012245380
E(CORR)(corrected)                         ...     -4.651236614
E(TOT)                                     ...  -1159.431296458
Singles Norm <S|S>**1/2                    ...      0.155471727  
T1 diagnostic                              ...      0.013741889  

------------------
LARGEST AMPLITUDES
------------------
  65-> 87  65-> 87       0.064140
  72-> 87  72-> 87       0.056489
  71-> 87  71-> 87       0.055127
  64-> 87  64-> 87       0.050857
  62-> 87  62-> 87       0.049364
  65-> 87  64-> 87       0.047218
  61-> 87  61-> 87       0.047209
  72-> 87  71-> 87       0.046641
  55-> 90  55-> 90       0.044654
  42-> 87  42-> 87       0.043833
  62-> 87  61-> 87       0.040312
  51-> 89  51-> 89       0.037288
  40-> 88  40-> 88       0.037213
  41-> 88  41-> 88       0.036074
  85-> 87  85-> 87       0.035797
  78-> 87  78-> 87       0.035759


-------------------------------------------
DLPNO BASED TRIPLES CORRECTION
-------------------------------------------

Singles multiplier          ...  1.000000
TCutTNO                     ... 1.000e-09
TCutMP2Pairs                ... 1.000e-06
TCutDOStrong                ... 1.000e-02
TCutMKNStrong               ... 1.000e-02
TCutDOWeak                  ... 2.000e-02
TCutMKNWeak                 ... 1.000e-01

Fragment selection                          .... not used
Fock matrix occ-virt block is zero --> Setting DT_in_Triples to false.
Number of Triples that are to be computed   ...     20279

 . . . . . . . . .
10% done               (   2674.960 sec)
 . . . . . . . . .
20% done               (   3159.798 sec)
 . . . . . . . . .
30% done               (   4027.688 sec)
 . . . . . . . . .
40% done  
50% done  
60% done               (   6115.326 sec)
 . . . . . . . . .
70% done  
80% done  
90% done               (   8468.902 sec)
Triples timings:
Total time for T0               ... 26824.565 sec
Total time for Iterative (T)    ...     0.000 sec
Total time of overall (T)       ... 27285.688 sec

Triples List generation         ...     0.000 sec
TNO generation                  ...  2377.429 sec
Pair density generation         ...     0.049 sec
Look up tables                  ...     0.000 sec
Generating 3-index integrals    ... 20805.478 sec
  Make 4-ind.int. from 3-ind.int...   258.662 sec
  Projecting amplitudes (D + S) ...  3177.984 sec
  Downprojecting integrals      ...     0.028 sec
  Energy contr. (sum over a,b,c)...    39.070 sec
Fitting ET(->0)                 ...     0.000 sec

Everything after 3-index        ...  3641.197 sec

Timing details:
 TNO integrals                  ... 21044.182 sec
   Reading 3-index integrals    ...   447.269 sec
   Sorting integrals            ...  3386.915 sec
       Sorting integrals 1      ...     0.023 sec
       Sorting integrals 2      ...  3314.448 sec
       Sorting integrals 3      ...    13.024 sec
       Sorting integrals 4      ...     1.239 sec
       Sorting integrals 5      ...    12.938 sec
       Sorting integrals 6      ...    45.243 sec
   Calculating local VM**-1/2   ...    31.316 sec
   Orthogonal. integrals        ...    45.882 sec
   Multipl. 3-index integrals   ... 17132.800 sec
   All concerning IRIab (w/TNO) ...   127.702 sec

 Calculate W0/W1                ...   165.375 sec
 W 3-ext contribution           ...    80.933 sec
 W 3-int contribution           ...    36.870 sec
 Sorting W                      ...    43.502 sec

 V exchange contribution        ...    10.153 sec

 Timings for Triples without generation
     of 3-index integrals       ...  3641.167 sec
       0 weak pairs             ...  2434.259 sec
       1 weak pair              ...  1206.908 sec
       2 weak pairs             ...     0.000 sec
       3 weak pairs             ...     0.000 sec
  Extra time for extrapolation  ...     0.000 sec

Number of Triples   (0, 1, 2, 3 weak pairs; overall):  12134    8145       0       0  ( 20279)
Number of Atoms     (0, 1, 2, 3 weak pairs; overall):   24.0    24.2     0.0     0.0  (    43)
Number of PAOs      (0, 1, 2, 3 weak pairs; overall): 1089.3  1107.9     0.0     0.0  (  1865)
Number of AuxFcns   (0, 1, 2, 3 weak pairs; overall):  903.6   628.2     0.0     0.0  (  4136)
Number of TNOs      (0, 1, 2, 3 weak pairs         ):  104.9    56.5     0.0     0.0
Aver. Number of NTNO, Atoms, PAOs, AuxFcns / Triples:  20279    85.4    24.1  1096.8   793.0

Triples Correction (T)                     ...     -0.212222296
Final correlation energy                   ...     -4.863458910
E(CCSD)                                    ...  -1159.431296458
E(CCSD(T))                                 ...  -1159.643518754



--------------------------------------------------------------------------------
                                    TIMINGS
--------------------------------------------------------------------------------


Total execution time                   ...    41438.064 sec

Localization of occupied MO's          ...       16.708 sec (  0.0%)
Fock Matrix Formation                  ...      857.711 sec (  2.1%)
Global overlap, Fock, MKN matrices     ...        6.894 sec (  0.0%)
Differential overlap integrals         ...        6.047 sec (  0.0%)
Organizing maps                        ...        0.655 sec (  0.0%)
RI 3-index integral generations        ...      247.232 sec (  0.6%)
RI-PNO integral transformation         ...     8009.684 sec ( 19.3%)
Initial Guess                          ...     1534.751 sec (  3.7%)
DIIS Solver                            ...       33.933 sec (  0.1%)
State Vector Update                    ...        0.315 sec (  0.0%)
Sigma-vector construction              ...     3461.232 sec (  8.4%)
  <0|H|D>                              ...        0.004 sec (  0.0% of sigma)
  <D|H|D>(0-ext)                       ...      237.212 sec (  6.9% of sigma)
  <D|H|D>(2-ext Fock)                  ...        0.163 sec (  0.0% of sigma)
  <D|H|D>(2-ext)                       ...     1271.134 sec ( 36.7% of sigma)
  <D|H|D>(4-ext)                       ...      167.671 sec (  4.8% of sigma)
  <D|H|D>(4-ext-corr)                  ...      974.902 sec ( 28.2% of sigma)
  CCSD doubles correction              ...        8.069 sec (  0.2% of sigma)
  <S|H|S>                              ...       23.083 sec (  0.7% of sigma)
  <S|H|D>(1-ext)                       ...       13.066 sec (  0.4% of sigma)
  <D|H|S>(1-ext)                       ...        0.219 sec (  0.0% of sigma)
  <S|H|D>(3-ext)                       ...        4.839 sec (  0.1% of sigma)
  CCSD singles correction              ...        0.003 sec (  0.0% of sigma)
  Fock-dressing                        ...      420.025 sec ( 12.1% of sigma)
  Singles amplitudes                   ...       51.647 sec (  1.5% of sigma)
  (ik|jl)-dressing                     ...      100.170 sec (  2.9% of sigma)
  (ij|ab),(ia|jb)-dressing             ...       32.304 sec (  0.9% of sigma)
  Pair energies                        ...        0.055 sec (  0.0% of sigma)
Total Time for computing (T)           ...    27285.812 sec ( 65.8% of ALL)


Maximum memory used throughout the entire MDCI-calculation: 10194.7 MB

-------------------------   --------------------
FINAL SINGLE POINT ENERGY     -1159.643518753727
-------------------------   --------------------


                            ***************************************
                            *     ORCA property calculations      *
                            ***************************************


  WARNING: The energy has been calculated at the MDCI level but the densities
           used in the property calculations are still SCF densities
           MDCI response densities have not been calculated 
           use %mdci Density linearized end
           or  %mdci Density unrelaxed end
           or  %mdci Density orbopt end

                                    ---------------------
                                    Active property flags
                                    ---------------------
   (+) Dipole Moment


------------------------------------------------------------------------------
                       ORCA ELECTRIC PROPERTIES CALCULATION
------------------------------------------------------------------------------

Dipole Moment Calculation                       ... on
Quadrupole Moment Calculation                   ... off
Polarizability Calculation                      ... off
GBWName                                         ... input.gbw
Electron density                                ... input.scfp
The origin for moment calculation is the CENTER OF MASS  = (19.860169, 18.542327 18.472261)

-------------
DIPOLE MOMENT
-------------
                                X             Y             Z
Electronic contribution:     24.32481      -6.42593      -1.12453
Nuclear contribution   :    -34.53240      10.37142       6.16255
                        -----------------------------------------
Total Dipole Moment    :    -10.20759       3.94549       5.03802
                        -----------------------------------------
Magnitude (a.u.)       :     12.04755
Magnitude (Debye)      :     30.62243



--------------------
Rotational spectrum 
--------------------
 
Rotational constants in cm-1:     0.015164     0.004348     0.004257 
Rotational constants in MHz :   454.593354   130.352518   127.630864 

 Dipole components along the rotational axes: 
x,y,z [a.u.] :    11.407820     3.671803     1.234058 
x,y,z [Debye]:    28.996375     9.332980     3.136725 

 

Timings for individual modules:

Sum of individual times         ...    47529.262 sec (= 792.154 min)
GTO integral calculation        ...        9.932 sec (=   0.166 min)   0.0 %
SCF iterations                  ...     6078.856 sec (= 101.314 min)  12.8 %
MDCI module                     ...    41440.474 sec (= 690.675 min)  87.2 %
                             ****ORCA TERMINATED NORMALLY****
TOTAL RUN TIME: 0 days 13 hours 12 minutes 14 seconds 469 msec
